  -10.00000        1.0000000E-24
  -9.950000        1.0000000E-24
  -9.900000        1.0000000E-24
  -9.850000        1.0000000E-24
  -9.800000        1.0000000E-24
  -9.750000        1.0000001E-24
  -9.700000        1.0000001E-24
  -9.650000        1.0000001E-24
  -9.600000        1.0000001E-24
  -9.550000        1.0000001E-24
  -9.500000        1.0000015E-24
  -9.450000        1.0000276E-24
  -9.400000        1.0003039E-24
  -9.350000        1.0023627E-24
  -9.300000        1.0141856E-24
  -9.250000        1.0688468E-24
  -9.200000        1.2780554E-24
  -9.150000        1.9541441E-24
  -9.100000        3.8249136E-24
  -9.050000        8.2978299E-24
  -9.000000        1.7579309E-23
  -8.950000        3.4274110E-23
  -8.900000        6.0055204E-23
  -8.850000        9.3321046E-23
  -8.800000        1.2641066E-22
  -8.750000        1.4332531E-22
  -8.700000        1.1805197E-22
  -8.650000        1.1555638E-23
  -8.600000       -2.3436070E-22
  -8.550000       -6.9846391E-22
  -8.500000       -1.4433250E-21
  -8.450000       -2.3738967E-21
  -8.400000       -2.9253097E-21
  -8.350000       -1.6232012E-21
  -8.300000        4.1528982E-21
  -8.250000        1.7449811E-20
  -8.200000        3.9040159E-20
  -8.150000        6.2181571E-20
  -8.100000        6.6153304E-20
  -8.050000        1.3349466E-20
  -8.000000       -1.4145988E-19
  -7.950000       -4.2014556E-19
  -7.900000       -7.6573764E-19
  -7.850000       -9.7807190E-19
  -7.800000       -6.8459386E-19
  -7.750000        5.8339673E-19
  -7.700000        3.1390218E-18
  -7.650000        6.6992212E-18
  -7.600000        9.8726810E-18
  -7.550000        9.8780734E-18
  -7.500000        2.9509718E-18
  -7.450000       -1.4114605E-17
  -7.400000       -4.1181604E-17
  -7.350000       -7.1372181E-17
  -7.300000       -8.8697942E-17
  -7.250000       -6.9222749E-17
  -7.200000        1.1708929E-17
  -7.150000        1.6517947E-16
  -7.100000        3.6978970E-16
  -7.050000        5.5539823E-16
  -7.000000        6.0117057E-16
  -6.950000        3.6068458E-16
  -6.900000       -2.7850589E-16
  -6.850000       -1.3069485E-15
  -6.800000       -2.5031408E-15
  -6.750000       -3.3874963E-15
  -6.700000       -3.2764530E-15
  -6.650000       -1.4796203E-15
  -6.600000        2.3612397E-15
  -6.550000        7.8651100E-15
  -6.500000        1.3592319E-14
  -6.450000        1.7025359E-14
  -6.400000        1.5050134E-14
  -6.350000        5.0214324E-15
  -6.300000       -1.3729454E-14
  -6.250000       -3.8377786E-14
  -6.200000       -6.1767730E-14
  -6.150000       -7.3025312E-14
  -6.100000       -6.0169677E-14
  -6.050000       -1.4678515E-14
  -6.000000        6.2925807E-14
  -5.950000        1.5834626E-13
  -5.900000        2.4212368E-13
  -5.850000        2.7391763E-13
  -5.800000        2.1353977E-13
  -5.750000        3.7506822E-14
  -5.700000       -2.4303809E-13
  -5.650000       -5.6975919E-13
  -5.600000       -8.3761795E-13
  -5.550000       -9.1436624E-13
  -5.500000       -6.7999084E-13
  -5.450000       -7.9418229E-14
  -5.400000        8.2652846E-13
  -5.350000        1.8328418E-12
  -5.300000        2.6057216E-12
  -5.250000        2.7544245E-12
  -5.200000        1.9556086E-12
  -5.150000        1.0409546E-13
  -5.100000       -2.5569625E-12
  -5.050000       -5.3846237E-12
  -5.000000       -7.4145065E-12
  -4.950000       -7.5906477E-12
  -4.900000       -5.1194786E-12
  -4.850000        1.3684737E-13
  -4.800000        7.3594143E-12
  -4.750000        1.4709995E-11
  -4.700000        1.9618245E-11
  -4.650000        1.9440779E-11
  -4.600000        1.2385023E-11
  -4.550000       -1.5442073E-12
  -4.500000       -1.9910292E-11
  -4.450000       -3.7859358E-11
  -4.400000       -4.9000196E-11
  -4.350000       -4.7127212E-11
  -4.300000       -2.8454605E-11
  -4.250000        6.2603594E-12
  -4.200000        5.0488034E-11
  -4.150000        9.2306926E-11
  -4.100000        1.1676887E-10
  -4.050000        1.1004620E-10
  -4.000000        6.4477097E-11
  -3.950000       -1.6949433E-11
  -3.900000       -1.1836523E-10
  -3.850000       -2.1246910E-10
  -3.800000       -2.6622071E-10
  -3.750000       -2.5008101E-10
  -3.700000       -1.4870943E-10
  -3.650000        3.0027068E-11
  -3.600000        2.5116090E-10
  -3.550000        4.5648538E-10
  -3.500000        5.7694277E-10
  -3.450000        5.5172061E-10
  -3.400000        3.4960571E-10
  -3.350000       -1.3674307E-11
  -3.300000       -4.6860865E-10
  -3.250000       -9.0022206E-10
  -3.200000       -1.1724863E-09
  -3.150000       -1.1648948E-09
  -3.100000       -8.1259732E-10
  -3.050000       -1.3852793E-10
  -3.000000        7.3400230E-10
  -2.950000        1.5961548E-09
  -2.900000        2.1969861E-09
  -2.850000        2.3081435E-09
  -2.800000        1.7947533E-09
  -2.750000        6.7277284E-10
  -2.700000       -8.6647911E-10
  -2.650000       -2.4776288E-09
  -2.600000       -3.7302708E-09
  -2.550000       -4.2140922E-09
  -2.500000       -3.6562662E-09
  -2.450000       -2.0200774E-09
  -2.400000        4.4565174E-10
  -2.350000        3.2274792E-09
  -2.300000        5.6433187E-09
  -2.250000        6.9982709E-09
  -2.200000        6.7668582E-09
  -2.150000        4.7567745E-09
  -2.100000        1.2084488E-09
  -2.050000       -3.2041316E-09
  -2.000000       -7.4845170E-09
  -1.950000       -1.0522905E-08
  -1.900000       -1.1362800E-08
  -1.850000       -9.4655137E-09
  -1.800000       -4.9060005E-09
  -1.750000        1.5577510E-09
  -1.700000        8.5761123E-09
  -1.650000        1.4459817E-08
  -1.600000        1.7553617E-08
  -1.550000        1.6657703E-08
  -1.500000        1.1400449E-08
  -1.450000        2.4626357E-09
  -1.400000       -8.4270360E-09
  -1.350000       -1.8762888E-08
  -1.300000       -2.5778002E-08
  -1.250000       -2.7117419E-08
  -1.200000       -2.1524356E-08
  -1.150000       -9.3629371E-09
  -1.100000        7.1919919E-09
  -1.050000        2.4413652E-08
  -1.000000        3.7749775E-08
 -0.9500000        4.2911736E-08
 -0.9000000        3.7099273E-08
 -0.8500000        2.0047757E-08
 -0.8000000       -5.4308287E-09
 -0.7500000       -3.3667174E-08
 -0.7000000       -5.7203248E-08
 -0.6500000       -6.8573001E-08
 -0.6000000       -6.2423425E-08
 -0.5500000       -3.7430119E-08
 -0.5000000        2.5876890E-09
 -0.4500000        4.8830241E-08
 -0.4000000        8.9153055E-08
 -0.3500000        1.1097326E-07
 -0.3000000        1.0482999E-07
 -0.2500000        6.7673653E-08
 -0.2000000        4.8678439E-09
 -0.1500000       -6.9915352E-08
 -0.1000000       -1.3724794E-07
 -5.0000001E-02   -1.7662023E-07
  0.0000000E+00   -1.7222241E-07
  5.0000001E-02   -1.1831415E-07
  0.1000000       -2.2526159E-08
  0.1500000        9.4225435E-08
  0.2000000        2.0173994E-07
  0.2500000        2.6789573E-07
  0.3000000        2.6772969E-07
  0.3500000        1.9180891E-07
  0.4000000        5.1296769E-08
  0.4500000       -1.2230021E-07
  0.5000000       -2.8343911E-07
  0.5500000       -3.8393043E-07
  0.6000000       -3.8676535E-07
  0.6500000       -2.7860449E-07
  0.7000000       -7.6991597E-08
  0.7500000        1.7063581E-07
  0.8000000        3.9701513E-07
  0.8500000        5.3246731E-07
  0.9000000        5.2543038E-07
  0.9500000        3.6035553E-07
   1.000000        6.7186249E-08
   1.050000       -2.8161142E-07
   1.100000       -5.8727886E-07
   1.150000       -7.5114497E-07
   1.200000       -7.0453240E-07
   1.250000       -4.3359236E-07
   1.300000        9.1419672E-09
   1.350000        5.1175687E-07
   1.400000        9.2884710E-07
   1.450000        1.1209453E-06
   1.500000        9.9735462E-07
   1.550000        5.4992927E-07
   1.600000       -1.3349593E-07
   1.650000       -8.8260282E-07
   1.700000       -1.4843295E-06
   1.750000       -1.7402439E-06
   1.800000       -1.5266842E-06
   1.850000       -8.4025709E-07
   1.900000        1.8635036E-07
   1.950000        1.3062288E-06
   2.000000        2.2155784E-06
   2.050000        2.6337434E-06
   2.100000        2.3852720E-06
   2.150000        1.4606676E-06
   2.200000        3.6372004E-08
   2.250000       -1.5556387E-06
   2.300000       -2.9047430E-06
   2.350000       -3.6275726E-06
   2.400000       -3.4756990E-06
   2.450000       -2.4150875E-06
   2.500000       -6.5279363E-07
   2.550000        1.4007363E-06
   2.600000        3.2282355E-06
   2.650000        4.3386035E-06
   2.700000        4.4020003E-06
   2.750000        3.3496519E-06
   2.800000        1.4081867E-06
   2.850000       -9.4546880E-07
   2.900000       -3.1012785E-06
   2.950000       -4.4772546E-06
   3.000000       -4.6821542E-06
   3.050000       -3.6339534E-06
   3.100000       -1.5977670E-06
   3.150000        8.7267523E-07
   3.200000        3.0793974E-06
   3.250000        4.3743858E-06
   3.300000        4.3507312E-06
   3.350000        2.9749276E-06
   3.400000        6.1769919E-07
   3.450000       -2.0326738E-06
   3.500000       -4.1571616E-06
   3.550000       -5.0446988E-06
   3.600000       -4.3155260E-06
   3.650000       -2.0613340E-06
   3.700000        1.1460407E-06
   3.750000        4.3900504E-06
   3.800000        6.6595239E-06
   3.850000        7.1472900E-06
   3.900000        5.5115711E-06
   3.950000        2.0189661E-06
   4.000000       -2.4828835E-06
   4.050000       -6.7678270E-06
   4.100000       -9.5619789E-06
   4.150000       -9.9143308E-06
   4.200000       -7.5008620E-06
   4.250000       -2.7683350E-06
   4.300000        3.1350789E-06
   4.350000        8.6361815E-06
   4.400000        1.2153543E-05
   4.450000        1.2543854E-05
   4.500000        9.4526431E-06
   4.550000        3.4651562E-06
   4.600000       -3.9952538E-06
   4.650000       -1.1005378E-05
   4.700000       -1.5634847E-05
   4.750000       -1.6465381E-05
   4.800000       -1.2996999E-05
   4.850000       -5.8276046E-06
   4.900000        3.4503171E-06
   4.950000        1.2618579E-05
   5.000000        1.9379886E-05
   5.050000        2.1945367E-05
   5.100000        1.9511801E-05
   5.150000        1.2501408E-05
   5.200000        2.4942174E-06
   5.250000       -8.1405478E-06
   5.300000       -1.6830478E-05
   5.350000       -2.1461039E-05
   5.400000       -2.0944253E-05
   5.450000       -1.5543870E-05
   5.500000       -6.8617310E-06
   5.550000        2.5262352E-06
   5.600000        9.7041147E-06
   5.650000        1.2163304E-05
   5.700000        8.4665489E-06
   5.750000       -1.3561094E-06
   5.800000       -1.5800279E-05
   5.850000       -3.2286647E-05
   5.900000       -4.7868834E-05
   5.950000       -6.0056464E-05
   6.000000       -6.7516368E-05
   6.050000       -7.0440423E-05
   6.100000       -7.0461101E-05
   6.150000       -7.0131529E-05
   6.200000       -7.2125375E-05
   6.250000       -7.8407495E-05
   6.300000       -8.9644600E-05
   6.350000       -1.0505452E-04
   6.400000       -1.2275112E-04
   6.450000       -1.4047466E-04
   6.500000       -1.5646033E-04
   6.550000       -1.7014248E-04
   6.600000       -1.8243992E-04
   6.650000       -1.9551163E-04
   6.700000       -2.1205892E-04
   6.750000       -2.3441849E-04
   6.800000       -2.6377416E-04
   6.850000       -2.9978048E-04
   6.900000       -3.4074570E-04
   6.950000       -3.8431611E-04
   7.000000       -4.2841330E-04
   7.050000       -4.7207586E-04
   7.100000       -5.1588751E-04
   7.150000       -5.6183088E-04
   7.200000       -6.1262731E-04
   7.250000       -6.7082932E-04
   7.300000       -7.3803368E-04
   7.350000       -8.1453694E-04
   7.400000       -8.9957577E-04
   7.450000       -9.9204539E-04
   7.500000       -1.0913798E-03
   7.550000       -1.1981885E-03
   7.600000       -1.3143334E-03
   7.650000       -1.4423617E-03
   7.700000       -1.5845033E-03
   7.750000       -1.7416705E-03
   7.800000       -1.9129530E-03
   7.850000       -2.0959517E-03
   7.900000       -2.2879660E-03
   7.950000       -2.4876771E-03
   8.000000       -2.6966962E-03
   8.050000       -2.9202984E-03
   8.100000       -3.1668935E-03
   8.150000       -3.4462262E-03
   8.200000       -3.7667961E-03
   8.250000       -4.1333446E-03
   8.300000       -4.5453520E-03
   8.350000       -4.9971906E-03
   8.400000       -5.4800631E-03
   8.450000       -5.9852055E-03
   8.500000       -6.5073622E-03
   8.550000       -7.0473747E-03
   8.600000       -7.6129953E-03
   8.650000       -8.2175909E-03
   8.700000       -8.8771423E-03
   8.750000       -9.6065048E-03
   8.800000       -1.0416148E-02
   8.850000       -1.1310416E-02
   8.900000       -1.2287777E-02
   8.950000       -1.3342902E-02
   9.000000       -1.4469763E-02
   9.050000       -1.5664715E-02
   9.100000       -1.6928630E-02
   9.150000       -1.8267568E-02
   9.200000       -1.9692102E-02
   9.250000       -2.1215755E-02
   9.300000       -2.2853272E-02
   9.350000       -2.4619240E-02
   9.400000       -2.6527271E-02
   9.450000       -2.8589552E-02
   9.500000       -3.0816469E-02
   9.550000       -3.3216029E-02
   9.600000       -3.5793211E-02
   9.650000       -3.8549654E-02
   9.700000       -4.1484315E-02
   9.750000       -4.4595424E-02
   9.800000       -4.7883704E-02
   9.850000       -5.1355936E-02
   9.900000       -5.5027697E-02
   9.950000       -5.8923863E-02
