  -10.00000        1.0000000E-24
  -9.950000        1.0000000E-24
  -9.900000        1.0000000E-24
  -9.850000        1.0000000E-24
  -9.800000        1.0000000E-24
  -9.750000        1.0000001E-24
  -9.700000        1.0000001E-24
  -9.650000        1.0000001E-24
  -9.600000        1.0000001E-24
  -9.550000        1.0000046E-24
  -9.500000        1.0000526E-24
  -9.450000        1.0003814E-24
  -9.400000        1.0024924E-24
  -9.350000        1.0148295E-24
  -9.300000        1.0737642E-24
  -9.250000        1.2956889E-24
  -9.200000        1.9527914E-24
  -9.150000        3.4743710E-24
  -9.100000        6.1432117E-24
  -9.050000        9.3272373E-24
  -9.000000        1.0879149E-23
  -8.950000        9.1874031E-24
  -8.900000        1.2118704E-23
  -8.850000        5.4553808E-23
  -8.800000        2.1273774E-22
  -8.750000        5.7662905E-22
  -8.700000        1.1159380E-21
  -8.650000        1.3977303E-21
  -8.600000        2.5262237E-22
  -8.550000       -4.2209771E-21
  -8.500000       -1.3587165E-20
  -8.450000       -2.6190109E-20
  -8.400000       -3.2604006E-20
  -8.350000       -1.1848728E-20
  -8.300000        6.5866996E-20
  -8.250000        2.2179212E-19
  -8.200000        4.3125834E-19
  -8.150000        5.7304483E-19
  -8.100000        3.9517339E-19
  -8.050000       -4.4682642E-19
  -8.000000       -2.2131747E-18
  -7.950000       -4.7343575E-18
  -7.900000       -6.9724700E-18
  -7.850000       -6.7340526E-18
  -7.800000       -9.4542081E-19
  -7.750000        1.3069509E-17
  -7.700000        3.5144380E-17
  -7.650000        5.9178890E-17
  -7.600000        7.0919713E-17
  -7.550000        4.9034307E-17
  -7.500000       -2.8017289E-17
  -7.450000       -1.6833238E-16
  -7.400000       -3.4868175E-16
  -7.350000       -4.9985267E-16
  -7.300000       -5.0698776E-16
  -7.250000       -2.3719712E-16
  -7.200000        3.9980815E-16
  -7.150000        1.3672172E-15
  -7.100000        2.4223965E-15
  -7.050000        3.0916290E-15
  -7.000000        2.7495515E-15
  -6.950000        8.3200875E-16
  -6.900000       -2.8416365E-15
  -6.850000       -7.7331660E-15
  -6.800000       -1.2398250E-14
  -6.750000       -1.4625872E-14
  -6.700000       -1.2017658E-14
  -6.650000       -2.9616643E-15
  -6.600000        1.2261961E-14
  -6.550000        3.0697846E-14
  -6.500000        4.6762500E-14
  -6.450000        5.3450930E-14
  -6.400000        4.4607696E-14
  -6.350000        1.7611944E-14
  -6.300000       -2.4621369E-14
  -6.250000       -7.3468839E-14
  -6.200000       -1.1684241E-13
  -6.150000       -1.4332336E-13
  -6.100000       -1.4638297E-13
  -6.050000       -1.2613504E-13
  -6.000000       -8.6570474E-14
  -5.950000       -2.8348660E-14
  -5.900000        5.9466443E-14
  -5.850000        2.0223215E-13
  -5.800000        4.2982623E-13
  -5.750000        7.5021337E-13
  -5.700000        1.1110528E-12
  -5.650000        1.3653282E-12
  -5.600000        1.2666726E-12
  -5.550000        5.2137613E-13
  -5.500000       -1.0890191E-12
  -5.450000       -3.5299398E-12
  -5.400000       -6.3360489E-12
  -5.350000       -8.5247373E-12
  -5.300000       -8.7035769E-12
  -5.250000       -5.4420292E-12
  -5.200000        2.1073252E-12
  -5.150000        1.3478210E-11
  -5.100000        2.6319086E-11
  -5.050000        3.6322067E-11
  -5.000000        3.7950788E-11
  -4.950000        2.6068840E-11
  -4.900000       -1.7671019E-12
  -4.850000       -4.2981715E-11
  -4.800000       -8.8566668E-11
  -4.750000       -1.2357650E-10
  -4.700000       -1.3019776E-10
  -4.650000       -9.3300416E-11
  -4.600000       -7.3451635E-12
  -4.550000        1.1748683E-10
  -4.500000        2.5263405E-10
  -4.450000        3.5436776E-10
  -4.400000        3.7393341E-10
  -4.350000        2.7340988E-10
  -4.300000        4.3443985E-11
  -4.250000       -2.8307959E-10
  -4.200000       -6.2793781E-10
  -4.150000       -8.7982416E-10
  -4.100000       -9.2263919E-10
  -4.050000       -6.7477701E-10
  -4.000000       -1.2868466E-10
  -3.950000        6.2351413E-10
  -3.900000        1.3918378E-09
  -3.850000        1.9253119E-09
  -3.800000        1.9810251E-09
  -3.750000        1.4100522E-09
  -3.700000        2.3449032E-10
  -3.650000       -1.3141228E-09
  -3.600000       -2.8190241E-09
  -3.550000       -3.7731138E-09
  -3.500000       -3.7294572E-09
  -3.450000       -2.4686599E-09
  -3.400000       -1.2857621E-10
  -3.350000        2.7583482E-09
  -3.300000        5.3553864E-09
  -3.250000        6.7380328E-09
  -3.200000        6.1902421E-09
  -3.150000        3.4949927E-09
  -3.100000       -8.8370156E-10
  -3.050000       -5.8149467E-09
  -3.000000       -9.7490727E-09
  -2.950000       -1.1163117E-08
  -2.900000       -9.0896988E-09
  -2.850000       -3.5617429E-09
  -2.800000        4.1997925E-09
  -2.750000        1.1973039E-08
  -2.700000        1.7106968E-08
  -2.650000        1.7353974E-08
  -2.600000        1.1723103E-08
  -2.550000        1.0594351E-09
  -2.500000       -1.1905407E-08
  -2.450000       -2.3149283E-08
  -2.400000       -2.8514389E-08
  -2.350000       -2.5120244E-08
  -2.300000       -1.2587805E-08
  -2.250000        6.3874657E-09
  -2.200000        2.6430273E-08
  -2.150000        4.0880774E-08
  -2.100000        4.3877513E-08
  -2.050000        3.2518489E-08
  -2.000000        8.3582075E-09
  -1.950000       -2.2395209E-08
  -1.900000       -5.0269502E-08
  -1.850000       -6.5281682E-08
  -1.800000       -6.0316076E-08
  -1.750000       -3.4046959E-08
  -1.700000        7.6910425E-09
  -1.650000        5.2813206E-08
  -1.600000        8.6219423E-08
  -1.550000        9.4587485E-08
  -1.500000        7.1289904E-08
  -1.450000        1.9730582E-08
  -1.400000       -4.6312838E-08
  -1.350000       -1.0592247E-07
  -1.300000       -1.3726503E-07
  -1.250000       -1.2508350E-07
  -1.200000       -6.7024793E-08
  -1.150000        2.3587441E-08
  -1.100000        1.2003919E-07
  -1.050000        1.8952940E-07
  -1.000000        2.0368657E-07
 -0.9500000        1.4910560E-07
 -0.9000000        3.4236418E-08
 -0.8500000       -1.1030694E-07
 -0.8000000       -2.3908134E-07
 -0.7500000       -3.0535196E-07
 -0.7000000       -2.7703234E-07
 -0.6500000       -1.4985386E-07
 -0.6000000        4.7174254E-08
 -0.5500000        2.5697847E-07
 -0.5000000        4.0999674E-07
 -0.4500000        4.4619458E-07
 -0.4000000        3.3685077E-07
 -0.3500000        9.8625016E-08
 -0.3000000       -2.0593268E-07
 -0.2500000       -4.8340132E-07
 -0.2000000       -6.3696285E-07
 -0.1500000       -5.9861298E-07
 -0.1000000       -3.5579342E-07
 -5.0000001E-02    3.7276216E-08
  0.0000000E+00    4.6931518E-07
  5.0000001E-02    8.0207570E-07
  0.1000000        9.1317798E-07
  0.1500000        7.3882256E-07
  0.2000000        3.0203313E-07
  0.2500000       -2.8474196E-07
  0.3000000       -8.4652413E-07
  0.3500000       -1.1965976E-06
  0.4000000       -1.1969595E-06
  0.4500000       -8.0936229E-07
  0.5000000       -1.1891226E-07
  0.5500000        6.8062451E-07
  0.6000000        1.3390688E-06
  0.6500000        1.6263026E-06
  0.7000000        1.4101840E-06
  0.7500000        7.1025198E-07
  0.8000000       -2.9304050E-07
  0.8500000       -1.3011651E-06
  0.9000000       -1.9835518E-06
  0.9500000       -2.0827868E-06
   1.000000       -1.5062312E-06
   1.050000       -3.7262853E-07
   1.100000        1.0059445E-06
   1.150000        2.2070126E-06
   1.200000        2.8244488E-06
   1.250000        2.6016514E-06
   1.300000        1.5282488E-06
   1.350000       -1.3445853E-07
   1.400000       -1.9138593E-06
   1.450000       -3.2599419E-06
   1.500000       -3.7154182E-06
   1.550000       -3.0697586E-06
   1.600000       -1.4457545E-06
   1.650000        7.1492707E-07
   1.700000        2.7704468E-06
   1.750000        4.0711875E-06
   1.800000        4.1687699E-06
   1.850000        2.9747432E-06
   1.900000        8.1328591E-07
   1.950000       -1.6572853E-06
   2.000000       -3.6382835E-06
   2.050000       -4.4446870E-06
   2.100000       -3.7403709E-06
   2.150000       -1.6755282E-06
   2.200000        1.1267073E-06
   2.250000        3.7418779E-06
   2.300000        5.2300084E-06
   2.350000        4.9503924E-06
   2.400000        2.8038007E-06
   2.450000       -6.8385100E-07
   2.500000       -4.4772778E-06
   2.550000       -7.3259635E-06
   2.600000       -8.1555672E-06
   2.650000       -6.4371657E-06
   2.700000       -2.4124042E-06
   2.750000        2.9104949E-06
   2.800000        8.0076770E-06
   2.850000        1.1277204E-05
   2.900000        1.1538251E-05
   2.950000        8.4376916E-06
   3.000000        2.6278863E-06
   3.050000       -4.3577488E-06
   3.100000       -1.0514057E-05
   3.150000       -1.3949673E-05
   3.200000       -1.3477059E-05
   3.250000       -9.0226504E-06
   3.300000       -1.7175906E-06
   3.350000        6.3787870E-06
   3.400000        1.2858243E-05
   3.450000        1.5682617E-05
   3.500000        1.3826700E-05
   3.550000        7.6413908E-06
   3.600000       -1.1895632E-06
   3.650000       -1.0105309E-05
   3.700000       -1.6413598E-05
   3.750000       -1.8107756E-05
   3.800000       -1.4504324E-05
   3.850000       -6.4961696E-06
   3.900000        3.6719900E-06
   3.950000        1.3052834E-05
   4.000000        1.8882189E-05
   4.050000        1.9431875E-05
   4.100000        1.4561175E-05
   4.150000        5.7843099E-06
   4.200000       -4.1813933E-06
   4.250000       -1.2258299E-05
   4.300000       -1.5984922E-05
   4.350000       -1.4317588E-05
   4.400000       -7.9941510E-06
   4.450000        6.7184715E-07
   4.500000        8.5195943E-06
   4.550000        1.2574989E-05
   4.600000        1.1066323E-05
   4.650000        4.0910240E-06
   4.700000       -6.2981721E-06
   4.750000       -1.6641974E-05
   4.800000       -2.3111572E-05
   4.850000       -2.2725579E-05
   4.900000       -1.4369574E-05
   4.950000        7.1018758E-07
   5.000000        1.9112776E-05
   5.050000        3.6147590E-05
   5.100000        4.7110680E-05
   5.150000        4.8590897E-05
   5.200000        3.9408867E-05
   5.250000        2.0901391E-05
   5.300000       -3.5334149E-06
   5.350000       -2.9483499E-05
   5.400000       -5.2829873E-05
   5.450000       -7.0900234E-05
   5.500000       -8.3109953E-05
   5.550000       -9.0902147E-05
   5.600000       -9.7031807E-05
   5.650000       -1.0445703E-04
   5.700000       -1.1523026E-04
   5.750000       -1.2977865E-04
   5.800000       -1.4682485E-04
   5.850000       -1.6397210E-04
   5.900000       -1.7873864E-04
   5.950000       -1.8965792E-04
   6.000000       -1.9702656E-04
   6.050000       -2.0299671E-04
   6.100000       -2.1094033E-04
   6.150000       -2.2428212E-04
   6.200000       -2.4521112E-04
   6.250000       -2.7375811E-04
   6.300000       -3.0763075E-04
   6.350000       -3.4295156E-04
   6.400000       -3.7572434E-04
   6.450000       -4.0356754E-04
   6.500000       -4.2710616E-04
   6.550000       -4.5046752E-04
   6.600000       -4.8058154E-04
   6.650000       -5.2537292E-04
   6.700000       -5.9132470E-04
   6.750000       -6.8116572E-04
   6.800000       -7.9247245E-04
   6.850000       -9.1776048E-04
   6.900000       -1.0462073E-03
   6.950000       -1.1666360E-03
   7.000000       -1.2709469E-03
   7.050000       -1.3569710E-03
   7.100000       -1.4298179E-03
   7.150000       -1.5011883E-03
   7.200000       -1.5867171E-03
   7.250000       -1.7020276E-03
   7.300000       -1.8586119E-03
   7.350000       -2.0607724E-03
   7.400000       -2.3045915E-03
   7.450000       -2.5793256E-03
   7.500000       -2.8708898E-03
   7.550000       -3.1664497E-03
   7.600000       -3.4587565E-03
   7.650000       -3.7488975E-03
   7.700000       -4.0465710E-03
   7.750000       -4.3677380E-03
   7.800000       -4.7302963E-03
   7.850000       -5.1490609E-03
   7.900000       -5.6315782E-03
   7.950000       -6.1760950E-03
   8.000000       -6.7723645E-03
   8.050000       -7.4051274E-03
   8.100000       -8.0592800E-03
   8.150000       -8.7252008E-03
   8.200000       -9.4026336E-03
   8.250000       -1.0101943E-02
   8.300000       -1.0842343E-02
   8.350000       -1.1647603E-02
   8.400000       -1.2540550E-02
   8.450000       -1.3538000E-02
   8.500000       -1.4647680E-02
   8.550000       -1.5868025E-02
   8.600000       -1.7190889E-02
   8.650000       -1.8606272E-02
   8.700000       -2.0107524E-02
   8.750000       -2.1695351E-02
   8.800000       -2.3379307E-02
   8.850000       -2.5176298E-02
   8.900000       -2.7106553E-02
   8.950000       -2.9188361E-02
   9.000000       -3.1433325E-02
   9.050000       -3.3843767E-02
   9.100000       -3.6413215E-02
   9.150000       -3.9130036E-02
   9.200000       -4.1983183E-02
   9.250000       -4.4968378E-02
   9.300000       -4.8092786E-02
   9.350000       -5.1376734E-02
   9.400000       -5.4851770E-02
   9.450000       -5.8555543E-02
   9.500000       -6.2524907E-02
   9.550000       -6.6789284E-02
   9.600000       -7.1366146E-02
   9.650000       -7.6260008E-02
   9.700000       -8.1465214E-02
   9.750000       -8.6971641E-02
   9.800000       -9.2771739E-02
   9.850000       -9.8866783E-02
   9.900000       -0.1052704    
   9.950000       -0.1120089    
