  -10.00000        4.0022295E-30
  -9.950000        4.0022295E-30
  -9.900000        4.0022295E-30
  -9.850000        3.7372644E-30
  -9.800000        4.3314969E-30
  -9.750000       -3.6566157E-30
  -9.700000       -5.8235472E-30
  -9.650000       -6.8571750E-30
  -9.600000       -1.9620974E-30
  -9.550000        5.4614842E-28
  -9.500000        9.9315824E-27
  -9.450000        1.0002440E-25
  -9.400000        7.1297071E-25
  -9.350000        3.9057493E-24
  -9.300000        1.7135247E-23
  -9.250000        6.1818996E-23
  -9.200000        1.8675198E-22
  -9.150000        4.7787220E-22
  -9.100000        1.0408586E-21
  -9.050000        1.9234255E-21
  -9.000000        2.9653296E-21
  -8.950000        3.6345165E-21
  -8.900000        2.9938990E-21
  -8.850000       -7.0496372E-23
  -8.800000       -6.4699769E-21
  -8.750000       -1.6875197E-20
  -8.700000       -3.2489202E-20
  -8.650000       -5.5767993E-20
  -8.600000       -8.7274747E-20
  -8.550000       -1.1230312E-19
  -8.500000       -7.4284263E-20
  -8.450000        1.5166346E-19
  -8.400000        7.4140860E-19
  -8.350000        1.7895964E-18
  -8.300000        3.0083254E-18
  -8.250000        3.3173727E-18
  -8.200000        6.2042770E-19
  -8.150000       -7.6678716E-18
  -8.100000       -2.2710229E-17
  -8.050000       -4.0802199E-17
  -8.000000       -4.9550537E-17
  -7.950000       -2.6762559E-17
  -7.900000        5.3303132E-17
  -7.850000        2.0232486E-16
  -7.800000        3.8980504E-16
  -7.750000        5.1505374E-16
  -7.700000        4.0182965E-16
  -7.650000       -1.5469557E-16
  -7.600000       -1.2672268E-15
  -7.550000       -2.7729976E-15
  -7.500000       -4.0553896E-15
  -7.450000       -4.0005701E-15
  -7.400000       -1.2494290E-15
  -7.350000        5.1459234E-15
  -7.300000        1.4720382E-14
  -7.250000        2.4582592E-14
  -7.200000        2.9015544E-14
  -7.150000        2.0455873E-14
  -7.100000       -7.6006638E-15
  -7.050000       -5.5934492E-14
  -7.000000       -1.1450334E-13
  -6.950000       -1.5948178E-13
  -6.900000       -1.5570089E-13
  -6.850000       -6.7099788E-14
  -6.800000        1.2473455E-13
  -6.750000        3.9815951E-13
  -6.700000        6.7431580E-13
  -6.650000        8.1761090E-13
  -6.600000        6.6520406E-13
  -6.550000        8.9335847E-14
  -6.500000       -9.1766818E-13
  -6.450000       -2.1633058E-12
  -6.400000       -3.2213902E-12
  -6.350000       -3.4888739E-12
  -6.300000       -2.3589780E-12
  -6.250000        5.0335251E-13
  -6.200000        4.8529475E-12
  -6.150000        9.6452846E-12
  -6.100000        1.3054210E-11
  -6.050000        1.2845266E-11
  -6.000000        7.1264483E-12
  -5.950000       -4.6572117E-12
  -5.900000       -2.0793379E-11
  -5.850000       -3.6868737E-11
  -5.800000       -4.6262022E-11
  -5.750000       -4.1804778E-11
  -5.700000       -1.8470487E-11
  -5.650000        2.3544942E-11
  -5.600000        7.6444184E-11
  -5.550000        1.2444945E-10
  -5.500000        1.4647888E-10
  -5.450000        1.2214964E-10
  -5.400000        4.0146733E-11
  -5.350000       -9.3373462E-11
  -5.300000       -2.4967076E-10
  -5.250000       -3.7900752E-10
  -5.200000       -4.2107878E-10
  -5.150000       -3.2381800E-10
  -5.100000       -6.6641415E-11
  -5.050000        3.1911146E-10
  -5.000000        7.4149675E-10
  -4.950000        1.0589236E-09
  -4.900000        1.1140630E-09
  -4.850000        7.8649637E-10
  -4.800000        5.1205207E-11
  -4.750000       -9.7693142E-10
  -4.700000       -2.0342867E-09
  -4.650000       -2.7513163E-09
  -4.600000       -2.7493887E-09
  -4.550000       -1.7747430E-09
  -4.500000        1.6680786E-10
  -4.450000        2.7232903E-09
  -4.400000        5.2055285E-09
  -4.350000        6.7198491E-09
  -4.300000        6.4169448E-09
  -4.250000        3.8050851E-09
  -4.200000       -9.6351283E-10
  -4.150000       -6.9427752E-09
  -4.100000       -1.2473849E-08
  -4.050000       -1.5538573E-08
  -4.000000       -1.4342968E-08
  -3.950000       -7.9957090E-09
  -3.900000        2.9247764E-09
  -3.850000        1.6140891E-08
  -3.800000        2.7956535E-08
  -3.750000        3.4092743E-08
  -3.700000        3.0945962E-08
  -3.650000        1.6958930E-08
  -3.600000       -6.3237398E-09
  -3.550000       -3.3946826E-08
  -3.500000       -5.8271819E-08
  -3.450000       -7.0757089E-08
  -3.400000       -6.4466057E-08
  -3.350000       -3.6661731E-08
  -3.300000        9.3284056E-09
  -3.250000        6.3739655E-08
  -3.200000        1.1194228E-07
  -3.150000        1.3788240E-07
  -3.100000        1.2870879E-07
  -3.050000        7.9384307E-08
  -3.000000       -4.1510013E-09
  -2.950000       -1.0452855E-07
  -2.900000       -1.9586965E-07
  -2.850000       -2.4981895E-07
  -2.800000       -2.4343618E-07
  -2.750000       -1.6690858E-07
  -2.700000       -2.8759024E-08
  -2.650000        1.4340296E-07
  -2.600000        3.0752796E-07
  -2.550000        4.1665893E-07
  -2.500000        4.3134526E-07
  -2.450000        3.3181618E-07
  -2.400000        1.2643932E-07
  -2.350000       -1.4639505E-07
  -2.300000       -4.2435508E-07
  -2.250000       -6.3454581E-07
  -2.200000       -7.1146849E-07
  -2.150000       -6.1529676E-07
  -2.100000       -3.4570203E-07
  -2.050000        5.2877304E-08
  -2.000000        4.9679909E-07
  -1.950000        8.7939696E-07
  -1.900000        1.0948729E-06
  -1.850000        1.0648906E-06
  -1.800000        7.6169425E-07
  -1.750000        2.2184400E-07
  -1.700000       -4.5386119E-07
  -1.650000       -1.1159627E-06
  -1.600000       -1.5958863E-06
  -1.550000       -1.7445349E-06
  -1.500000       -1.4722233E-06
  -1.450000       -7.8074373E-07
  -1.400000        2.2152882E-07
  -1.350000        1.3282955E-06
  -1.300000        2.2702773E-06
  -1.250000        2.7729923E-06
  -1.200000        2.6273440E-06
  -1.150000        1.7574017E-06
  -1.100000        2.6669369E-07
  -1.050000       -1.5542144E-06
  -1.000000       -3.2696641E-06
 -0.9500000       -4.3897694E-06
 -0.9000000       -4.4956200E-06
 -0.8500000       -3.3708282E-06
 -0.8000000       -1.1031024E-06
 -0.7500000        1.8801060E-06
 -0.7000000        4.8665293E-06
 -0.6500000        7.0077349E-06
 -0.6000000        7.5374915E-06
 -0.5500000        6.0098000E-06
 -0.5000000        2.4898986E-06
 -0.4500000       -2.3678911E-06
 -0.4000000       -7.4010459E-06
 -0.3500000       -1.1185388E-05
 -0.3000000       -1.2405227E-05
 -0.2500000       -1.0259782E-05
 -0.2000000       -4.7909539E-06
 -0.1500000        2.9802372E-06
 -0.1000000        1.1184119E-05
 -5.0000001E-02    1.7508040E-05
  0.0000000E+00    1.9804171E-05
  5.0000001E-02    1.6751901E-05
  0.1000000        8.3854375E-06
  0.1500000       -3.6948384E-06
  0.2000000       -1.6543483E-05
  0.2500000       -2.6528713E-05
  0.3000000       -3.0301917E-05
  0.3500000       -2.5836529E-05
  0.4000000       -1.3233935E-05
  0.4500000        4.9832192E-06
  0.5000000        2.4259045E-05
  0.5500000        3.9062568E-05
  0.6000000        4.4398286E-05
  0.6500000        3.7380833E-05
  0.7000000        1.8405801E-05
  0.7500000       -8.4992334E-06
  0.8000000       -3.6370860E-05
  0.8500000       -5.6995614E-05
  0.9000000       -6.3215193E-05
  0.9500000       -5.1237763E-05
   1.000000       -2.2251352E-05
   1.050000        1.7252098E-05
   1.100000        5.6720513E-05
   1.150000        8.4191503E-05
   1.200000        8.9730951E-05
   1.250000        6.8717731E-05
   1.300000        2.3952212E-05
   1.350000       -3.4209868E-05
   1.400000       -8.9996836E-05
   1.450000       -1.2627548E-04
   1.500000       -1.2953392E-04
   1.550000       -9.4399933E-05
   1.600000       -2.6272704E-05
   1.650000        5.8952090E-05
   1.700000        1.3832486E-04
   1.750000        1.8778970E-04
   1.800000        1.8914691E-04
   1.850000        1.3607215E-04
   1.900000        3.7308371E-05
   1.950000       -8.4211555E-05
   2.000000       -1.9647377E-04
   2.050000       -2.6665468E-04
   2.100000       -2.7045308E-04
   2.150000       -1.9987649E-04
   2.200000       -6.7086061E-05
   2.250000        9.7162520E-05
   2.300000        2.5050994E-04
   2.350000        3.4988127E-04
   2.400000        3.6349520E-04
   2.450000        2.8067283E-04
   2.500000        1.1649448E-04
   2.550000       -9.0412221E-05
   2.600000       -2.8685250E-04
   2.650000       -4.1878867E-04
   2.700000       -4.4629787E-04
   2.750000       -3.5564663E-04
   2.800000       -1.6487617E-04
   2.850000        7.9138263E-05
   2.900000        3.1193340E-04
   2.950000        4.6843078E-04
   3.000000        5.0124014E-04
   3.050000        3.9519413E-04
   3.100000        1.7370240E-04
   3.150000       -1.0548806E-04
   3.200000       -3.6469352E-04
   3.250000       -5.2745722E-04
   3.300000       -5.4085936E-04
   3.350000       -3.9257010E-04
   3.400000       -1.1725782E-04
   3.450000        2.1035400E-04
   3.500000        4.9478043E-04
   3.550000        6.4668391E-04
   3.600000        6.1000744E-04
   3.650000        3.8127310E-04
   3.700000        1.4654125E-05
   3.750000       -3.8981458E-04
   3.800000       -7.1268308E-04
   3.850000       -8.4939384E-04
   3.900000       -7.4275443E-04
   3.950000       -4.0369781E-04
   4.000000        8.6762695E-05
   4.050000        5.9631630E-04
   4.100000        9.7672036E-04
   4.150000        1.1063280E-03
   4.200000        9.2762342E-04
   4.250000        4.6835461E-04
   4.300000       -1.6092461E-04
   4.350000       -7.9349632E-04
   4.400000       -1.2508201E-03
   4.450000       -1.3926083E-03
   4.500000       -1.1585107E-03
   4.550000       -5.8916910E-04
   4.600000        1.8011406E-04
   4.650000        9.5226220E-04
   4.700000        1.5195741E-03
   4.750000        1.7195662E-03
   4.800000        1.4804045E-03
   4.850000        8.4341125E-04
   4.900000       -4.3863827E-05
   4.950000       -9.6278178E-04
   5.000000       -1.6783308E-03
   5.050000       -1.9996187E-03
   5.100000       -1.8307305E-03
   5.150000       -1.1987189E-03
   5.200000       -2.5103008E-04
   5.250000        7.7793410E-04
   5.300000        1.6237472E-03
   5.350000        2.0589379E-03
   5.400000        1.9534393E-03
   5.450000        1.3127025E-03
   5.500000        2.8233041E-04
   5.550000       -8.8403432E-04
   5.600000       -1.8874764E-03
   5.650000       -2.4623771E-03
   5.700000       -2.4503618E-03
   5.750000       -1.8486039E-03
   5.800000       -8.1687939E-04
   5.850000        3.6167048E-04
   5.900000        1.3578241E-03
   5.950000        1.8910912E-03
   6.000000        1.8143384E-03
   6.050000        1.1613504E-03
   6.100000        1.4009945E-04
   6.150000       -9.2936668E-04
   6.200000       -1.7153078E-03
   6.250000       -1.9819967E-03
   6.300000       -1.6691267E-03
   6.350000       -9.1467355E-04
   6.400000       -1.0764729E-05
   6.450000        6.9513323E-04
   6.500000        9.2141703E-04
   6.550000        5.5387634E-04
   6.600000       -3.0970445E-04
   6.650000       -1.3902290E-03
   6.700000       -2.3249127E-03
   6.750000       -2.7984409E-03
   6.800000       -2.6602547E-03
   6.850000       -1.9835620E-03
   6.900000       -1.0420728E-03
   6.950000       -2.1072139E-04
   7.000000        1.7386346E-04
   7.050000       -5.9650738E-05
   7.100000       -8.5268408E-04
   7.150000       -1.9412088E-03
   7.200000       -2.9622475E-03
   7.250000       -3.6009406E-03
   7.300000       -3.7195848E-03
   7.350000       -3.4141869E-03
   7.400000       -2.9723169E-03
   7.450000       -2.7459196E-03
   7.500000       -2.9897466E-03
   7.550000       -3.7345020E-03
   7.600000       -4.7533228E-03
   7.650000       -5.6453384E-03
   7.700000       -6.0102181E-03
   7.750000       -5.6461403E-03
   7.800000       -4.6864529E-03
   7.850000       -3.6062023E-03
   7.900000       -3.0787913E-03
   7.950000       -3.7231878E-03
   8.000000       -5.8331634E-03
   8.050000       -9.1971895E-03
   8.100000       -1.3095245E-02
   8.150000       -1.6494649E-02
   8.200000       -1.8391535E-02
   8.250000       -1.8183416E-02
   8.300000       -1.5932638E-02
   8.350000       -1.2413515E-02
   8.400000       -8.9079635E-03
   8.450000       -6.8054935E-03
   8.500000       -7.1426756E-03
   8.550000       -1.0243194E-02
   8.600000       -1.5590053E-02
   8.650000       -2.1982180E-02
   8.700000       -2.7924264E-02
   8.750000       -3.2112729E-02
   8.800000       -3.3849202E-02
   8.850000       -3.3237297E-02
   8.900000       -3.1105693E-02
   8.950000       -2.8694734E-02
   9.000000       -2.7237065E-02
   9.050000       -2.7583985E-02
   9.100000       -3.0009862E-02
   9.150000       -3.4238171E-02
   9.200000       -3.9647505E-02
   9.250000       -4.5545161E-02
   9.300000       -5.1381063E-02
   9.350000       -5.6825001E-02
   9.400000       -6.1701011E-02
   9.450000       -6.5854028E-02
   9.500000       -6.9056913E-02
   9.550000       -7.1048059E-02
   9.600000       -7.1705356E-02
   9.650000       -7.1285494E-02
   9.700000       -7.0581220E-02
   9.750000       -7.0866823E-02
   9.800000       -7.3581226E-02
   9.850000       -7.9812482E-02
   9.900000       -8.9760438E-02
   9.950000       -0.1024412    
