  -10.00000        1.0204056E-31
  -9.950000        3.0612165E-31
  -9.900000        5.1020282E-31
  -9.850000        7.7967841E-31
  -9.800000        9.7787363E-31
  -9.750000        8.1753281E-31
  -9.700000        4.6380413E-31
  -9.650000        1.0293584E-31
  -9.600000        4.4683052E-29
  -9.550000        5.2514789E-28
  -9.500000        3.7685626E-27
  -9.450000        2.4398528E-26
  -9.400000        1.4448090E-25
  -9.350000        7.1271788E-25
  -9.300000        2.8085931E-24
  -9.250000        8.7902731E-24
  -9.200000        2.1786820E-23
  -9.150000        4.1904200E-23
  -9.100000        5.8528658E-23
  -9.050000        4.7359375E-23
  -9.000000       -1.3983406E-24
  -8.950000        1.2395555E-23
  -8.900000        4.5366409E-22
  -8.850000        2.0061905E-21
  -8.800000        5.2207525E-21
  -8.750000        9.0320029E-21
  -8.700000        8.2110108E-21
  -8.650000       -8.6331572E-21
  -8.600000       -5.6187070E-20
  -8.550000       -1.3839788E-19
  -8.500000       -2.1969131E-19
  -8.450000       -1.9016840E-19
  -8.400000        1.4341378E-19
  -8.350000        9.8471003E-19
  -8.300000        2.3364082E-18
  -8.250000        3.6539132E-18
  -8.200000        3.5125269E-18
  -8.150000       -3.6084953E-19
  -8.100000       -1.0198713E-17
  -8.050000       -2.6083481E-17
  -8.000000       -4.2875309E-17
  -7.950000       -4.7592948E-17
  -7.900000       -1.9996951E-17
  -7.850000        6.0270490E-17
  -7.800000        1.9803561E-16
  -7.750000        3.6089800E-16
  -7.700000        4.6109377E-16
  -7.650000        3.5775334E-16
  -7.600000       -1.0144576E-16
  -7.550000       -9.8936995E-16
  -7.500000       -2.1736670E-15
  -7.450000       -3.2066446E-15
  -7.400000       -3.3152031E-15
  -7.350000       -1.5830599E-15
  -7.300000        2.6265556E-15
  -7.250000        9.0679578E-15
  -7.200000        1.6044142E-14
  -7.150000        2.0225883E-14
  -7.100000        1.7244119E-14
  -7.050000        3.2715532E-15
  -7.000000       -2.2596200E-14
  -6.950000       -5.5911879E-14
  -6.900000       -8.5651748E-14
  -6.850000       -9.5566133E-14
  -6.800000       -6.8927062E-14
  -6.750000        3.8059244E-15
  -6.700000        1.1664207E-13
  -6.650000        2.4279618E-13
  -6.600000        3.3659509E-13
  -6.550000        3.4500538E-13
  -6.500000        2.2753083E-13
  -6.450000       -2.1548084E-14
  -6.400000       -3.5838989E-13
  -6.350000       -6.9229063E-13
  -6.300000       -9.1080778E-13
  -6.250000       -9.2221033E-13
  -6.200000       -6.9854506E-13
  -6.150000       -2.9540576E-13
  -6.100000        1.7188310E-13
  -6.050000        5.9812512E-13
  -6.000000        9.7786384E-13
  -5.950000        1.4603690E-12
  -5.900000        2.3058081E-12
  -5.850000        3.7035978E-12
  -5.800000        5.4798124E-12
  -5.750000        6.8122660E-12
  -5.700000        6.1511482E-12
  -5.650000        1.5561992E-12
  -5.600000       -8.4395199E-12
  -5.550000       -2.3556915E-11
  -5.500000       -4.0513155E-11
  -5.450000       -5.2470299E-11
  -5.400000       -4.9947976E-11
  -5.350000       -2.3675272E-11
  -5.300000        3.0827080E-11
  -5.250000        1.0810901E-10
  -5.200000        1.8920239E-10
  -5.150000        2.4211760E-10
  -5.100000        2.2843857E-10
  -5.050000        1.1631702E-10
  -5.000000       -1.0253225E-10
  -4.950000       -3.9717890E-10
  -4.900000       -6.9050554E-10
  -4.850000       -8.6799562E-10
  -4.800000       -8.0594775E-10
  -4.750000       -4.1631087E-10
  -4.700000        3.0276084E-10
  -4.650000        1.2285258E-09
  -4.600000        2.1078721E-09
  -4.550000        2.5997919E-09
  -4.500000        2.3688096E-09
  -4.450000        1.2129940E-09
  -4.400000       -8.0957852E-10
  -4.350000       -3.3048939E-09
  -4.300000       -5.5648943E-09
  -4.250000       -6.7138179E-09
  -4.200000       -5.9674456E-09
  -4.150000       -2.9470144E-09
  -4.100000        2.0504700E-09
  -4.050000        7.9395459E-09
  -4.000000        1.2982913E-08
  -3.950000        1.5205224E-08
  -3.900000        1.3017976E-08
  -3.850000        5.8918732E-09
  -3.800000       -5.1525975E-09
  -3.750000       -1.7465348E-08
  -3.700000       -2.7241750E-08
  -3.650000       -3.0535144E-08
  -3.600000       -2.4589911E-08
  -3.550000       -9.1043315E-09
  -3.500000        1.3044536E-08
  -3.450000        3.6008810E-08
  -3.400000        5.2270085E-08
  -3.350000        5.4839617E-08
  -3.300000        3.9796834E-08
  -3.250000        8.3485556E-09
  -3.200000       -3.2430403E-08
  -3.150000       -7.0739446E-08
  -3.100000       -9.3099395E-08
  -3.050000       -8.8653707E-08
  -3.000000       -5.3481688E-08
  -2.950000        6.5937340E-09
  -2.900000        7.6013734E-08
  -2.850000        1.3289490E-07
  -2.800000        1.5534779E-07
  -2.750000        1.2907175E-07
  -2.700000        5.3809359E-08
  -2.650000       -5.3838654E-08
  -2.600000       -1.6294540E-07
  -2.550000       -2.3628509E-07
  -2.500000       -2.4208717E-07
  -2.450000       -1.6608983E-07
  -2.400000       -1.9709613E-08
  -2.350000        1.5926584E-07
  -2.300000        3.1507707E-07
  -2.250000        3.9018073E-07
  -2.200000        3.4493306E-07
  -2.150000        1.7447242E-07
  -2.100000       -8.3622837E-08
  -2.050000       -3.5519307E-07
  -2.000000       -5.4913693E-07
  -1.950000       -5.8627711E-07
  -1.900000       -4.2886467E-07
  -1.850000       -1.0046563E-07
  -1.800000        3.1234720E-07
  -1.750000        6.8007114E-07
  -1.700000        8.6860160E-07
  -1.650000        7.8528370E-07
  -1.600000        4.1774271E-07
  -1.550000       -1.4929520E-07
  -1.500000       -7.4856911E-07
  -1.450000       -1.1760274E-06
  -1.400000       -1.2565304E-06
  -1.350000       -9.0952176E-07
  -1.300000       -1.9161006E-07
  -1.250000        7.0240253E-07
  -1.200000        1.4867095E-06
  -1.150000        1.8706399E-06
  -1.100000        1.6594198E-06
  -1.050000        8.3647376E-07
  -1.000000       -4.0423816E-07
 -0.9500000       -1.6945014E-06
 -0.9000000       -2.5941254E-06
 -0.8500000       -2.7331771E-06
 -0.8000000       -1.9504496E-06
 -0.7500000       -3.7950997E-07
 -0.7000000        1.5549807E-06
 -0.6500000        3.2420655E-06
 -0.6000000        4.0683231E-06
 -0.5500000        3.6282245E-06
 -0.5000000        1.8921611E-06
 -0.4500000       -7.3145941E-07
 -0.4000000       -3.4756963E-06
 -0.3500000       -5.4278348E-06
 -0.3000000       -5.8202631E-06
 -0.2500000       -4.3103014E-06
 -0.2000000       -1.1521169E-06
 -0.1500000        2.8116938E-06
 -0.1000000        6.3588923E-06
 -5.0000001E-02    8.2510851E-06
  0.0000000E+00    7.6479946E-06
  5.0000001E-02    4.4386288E-06
  0.1000000       -6.3253208E-07
  0.1500000       -6.1114488E-06
  0.2000000       -1.0235644E-05
  0.2500000       -1.1485572E-05
  0.3000000       -9.1185575E-06
  0.3500000       -3.5043547E-06
  0.4000000        3.8723538E-06
  0.4500000        1.0780474E-05
  0.5000000        1.4899870E-05
  0.5500000        1.4579811E-05
  0.6000000        9.4567813E-06
  0.6500000        7.1115159E-07
  0.7000000       -9.1605052E-06
  0.7500000       -1.7032244E-05
  0.8000000       -2.0114167E-05
  0.8500000       -1.6905109E-05
  0.9000000       -7.8162157E-06
  0.9500000        4.7732069E-06
   1.000000        1.7101578E-05
   1.050000        2.5121750E-05
   1.100000        2.5796406E-05
   1.150000        1.8185037E-05
   1.200000        3.9463871E-06
   1.250000       -1.2961997E-05
   1.300000       -2.7361095E-05
   1.350000       -3.4421078E-05
   1.400000       -3.1254833E-05
   1.450000       -1.8015591E-05
   1.500000        1.9018325E-06
   1.550000        2.2696639E-05
   1.600000        3.7846858E-05
   1.650000        4.2162021E-05
   1.700000        3.3562606E-05
   1.750000        1.3983229E-05
   1.800000       -1.0964441E-05
   1.850000       -3.3554836E-05
   1.900000       -4.6320285E-05
   1.950000       -4.4515695E-05
   2.000000       -2.7874003E-05
   2.050000       -1.0208572E-06
   2.100000        2.7691591E-05
   2.150000        4.8670780E-05
   2.200000        5.4174056E-05
   2.250000        4.1033014E-05
   2.300000        1.2085145E-05
   2.350000       -2.4262072E-05
   2.400000       -5.6342433E-05
   2.450000       -7.2810784E-05
   2.500000       -6.6421133E-05
   2.550000       -3.6782891E-05
   2.600000        8.8879815E-06
   2.650000        5.7431625E-05
   2.700000        9.3476599E-05
   2.750000        1.0420081E-04
   2.800000        8.3667102E-05
   2.850000        3.5305751E-05
   2.900000       -2.8395114E-05
   2.950000       -8.9103632E-05
   3.000000       -1.2795441E-04
   3.050000       -1.3141944E-04
   3.100000       -9.5919248E-05
   3.150000       -2.9630015E-05
   3.200000        4.9270249E-05
   3.250000        1.1759468E-04
   3.300000        1.5401436E-04
   3.350000        1.4575833E-04
   3.400000        9.3038288E-05
   3.450000        9.6845752E-06
   3.500000       -8.0412239E-05
   3.550000       -1.5016262E-04
   3.600000       -1.7746699E-04
   3.650000       -1.5224036E-04
   3.700000       -8.0024511E-05
   3.750000        1.9092735E-05
   3.800000        1.1611588E-04
   3.850000        1.8176313E-04
   3.900000        1.9549007E-04
   3.950000        1.5210199E-04
   4.000000        6.3790387E-05
   4.050000       -4.3210141E-05
   4.100000       -1.3647565E-04
   4.150000       -1.8742567E-04
   4.200000       -1.8042610E-04
   4.250000       -1.1803526E-04
   4.300000       -2.0592908E-05
   4.350000        7.9907681E-05
   4.400000        1.4989435E-04
   4.450000        1.6513745E-04
   4.500000        1.1903140E-04
   4.550000        2.5467283E-05
   4.600000       -8.4839638E-05
   4.650000       -1.7364496E-04
   4.700000       -2.0732997E-04
   4.750000       -1.6813401E-04
   4.800000       -6.0836053E-05
   4.850000        8.7419896E-05
   4.900000        2.3435761E-04
   4.950000        3.3482350E-04
   5.000000        3.5437400E-04
   5.050000        2.7997899E-04
   5.100000        1.2443306E-04
   5.150000       -7.7018085E-05
   5.200000       -2.7689507E-04
   5.250000       -4.2942280E-04
   5.300000       -5.0384883E-04
   5.350000       -4.9296446E-04
   5.400000       -4.1416736E-04
   5.450000       -3.0280085E-04
   5.500000       -2.0001912E-04
   5.550000       -1.3921855E-04
   5.600000       -1.3554891E-04
   5.650000       -1.8198459E-04
   5.700000       -2.5321628E-04
   5.750000       -3.1594586E-04
   5.800000       -3.4193447E-04
   5.850000       -3.1913788E-04
   5.900000       -2.5685804E-04
   5.950000       -1.8287911E-04
   6.000000       -1.3338795E-04
   6.050000       -1.3913774E-04
   6.100000       -2.1285407E-04
   6.150000       -3.4270764E-04
   6.200000       -4.9475970E-04
   6.250000       -6.2419631E-04
   6.300000       -6.9193466E-04
   6.350000       -6.8093592E-04
   6.400000       -6.0615956E-04
   6.450000       -5.1381817E-04
   6.500000       -4.6899967E-04
   6.550000       -5.3475384E-04
   6.600000       -7.4905372E-04
   6.650000       -1.1074311E-03
   6.700000       -1.5579278E-03
   6.750000       -2.0114777E-03
   6.800000       -2.3659475E-03
   6.850000       -2.5373476E-03
   6.900000       -2.4887552E-03
   6.950000       -2.2473957E-03
   7.000000       -1.9033497E-03
   7.050000       -1.5887108E-03
   7.100000       -1.4421733E-03
   7.150000       -1.5689915E-03
   7.200000       -2.0083920E-03
   7.250000       -2.7189471E-03
   7.300000       -3.5874485E-03
   7.350000       -4.4597965E-03
   7.400000       -5.1855315E-03
   7.450000       -5.6629819E-03
   7.500000       -5.8712396E-03
   7.550000       -5.8786664E-03
   7.600000       -5.8244774E-03
   7.650000       -5.8781453E-03
   7.700000       -6.1884066E-03
   7.750000       -6.8372535E-03
   7.800000       -7.8132264E-03
   7.850000       -9.0128174E-03
   7.900000       -1.0270343E-02
   7.950000       -1.1407861E-02
   8.000000       -1.2290319E-02
   8.050000       -1.2869153E-02
   8.100000       -1.3200731E-02
   8.150000       -1.3433535E-02
   8.200000       -1.3767433E-02
   8.250000       -1.4397098E-02
   8.300000       -1.5456590E-02
   8.350000       -1.6982056E-02
   8.400000       -1.8903967E-02
   8.450000       -2.1071307E-02
   8.500000       -2.3300234E-02
   8.550000       -2.5432063E-02
   8.600000       -2.7382465E-02
   8.650000       -2.9166374E-02
   8.700000       -3.0890808E-02
   8.750000       -3.2717824E-02
   8.800000       -3.4809474E-02
   8.850000       -3.7272468E-02
   8.900000       -4.0120613E-02
   8.950000       -4.3267716E-02
   9.000000       -4.6554066E-02
   9.050000       -4.9798876E-02
   9.100000       -5.2862659E-02
   9.150000       -5.5699676E-02
   9.200000       -5.8383409E-02
   9.250000       -6.1096013E-02
   9.300000       -6.4083584E-02
   9.350000       -6.7589872E-02
   9.400000       -7.1788073E-02
   9.450000       -7.6731332E-02
   9.500000       -8.2337402E-02
   9.550000       -8.8412374E-02
   9.600000       -9.4707273E-02
   9.650000       -0.1009907    
   9.700000       -0.1071163    
   9.750000       -0.1130653    
   9.800000       -0.1189514    
   9.850000       -0.1249870    
   9.900000       -0.1314210    
   9.950000       -0.1384673    
