  -10.00000        4.0816226E-30
  -9.950000        4.0816226E-30
  -9.900000        4.0816226E-30
  -9.850000        6.6974026E-30
  -9.800000        1.2304071E-30
  -9.750000       -7.6440415E-30
  -9.700000       -6.5051045E-30
  -9.650000       -7.9296268E-30
  -9.600000        1.7911343E-27
  -9.550000        1.7427458E-26
  -9.500000        1.1230913E-25
  -9.450000        7.1288946E-25
  -9.400000        4.0904051E-24
  -9.350000        1.8639073E-23
  -9.300000        6.5195933E-23
  -9.250000        1.7407126E-22
  -9.200000        3.4579065E-22
  -9.150000        4.5890445E-22
  -9.100000        2.0607393E-22
  -9.050000       -6.5284508E-22
  -9.000000       -1.2974635E-21
  -8.950000        1.8492192E-21
  -8.900000        1.5801521E-20
  -8.850000        4.6299538E-20
  -8.800000        8.2282932E-20
  -8.750000        7.0167069E-20
  -8.700000       -1.0300675E-19
  -8.650000       -5.7075995E-19
  -8.600000       -1.3313965E-18
  -8.550000       -1.9570357E-18
  -8.500000       -1.2947015E-18
  -8.450000        2.4756182E-18
  -8.400000        1.0867668E-17
  -8.350000        2.2784180E-17
  -8.300000        3.1283749E-17
  -8.250000        2.1416457E-17
  -8.200000       -2.7071904E-17
  -8.150000       -1.2786316E-16
  -8.100000       -2.6565134E-16
  -8.050000       -3.6973933E-16
  -8.000000       -3.0193384E-16
  -7.950000        1.1322832E-16
  -7.900000        9.9061160E-16
  -7.850000        2.2200858E-15
  -7.800000        3.2905191E-15
  -7.750000        3.2239764E-15
  -7.700000        7.8385440E-16
  -7.650000       -4.9174718E-15
  -7.600000       -1.3450491E-14
  -7.550000       -2.2066475E-14
  -7.500000       -2.5305402E-14
  -7.450000       -1.6013705E-14
  -7.400000        1.1671365E-14
  -7.350000        5.7614361E-14
  -7.300000        1.1077026E-13
  -7.250000        1.4688587E-13
  -7.200000        1.3216151E-13
  -7.150000        3.5108123E-14
  -7.100000       -1.5437867E-13
  -7.050000       -4.0452393E-13
  -7.000000       -6.3018628E-13
  -6.950000       -7.0244093E-13
  -6.900000       -4.8715377E-13
  -6.850000        9.0578573E-14
  -6.800000        9.7498442E-13
  -6.750000        1.9343351E-12
  -6.700000        2.5791110E-12
  -6.650000        2.4670533E-12
  -6.600000        1.2849023E-12
  -6.550000       -9.4849031E-13
  -6.500000       -3.7504908E-12
  -6.450000       -6.2126658E-12
  -6.400000       -7.2610043E-12
  -6.350000       -6.0950238E-12
  -6.300000       -2.6456643E-12
  -6.250000        2.1895623E-12
  -6.200000        6.7570480E-12
  -6.150000        9.3685268E-12
  -6.100000        9.3230276E-12
  -6.050000        7.7266535E-12
  -6.000000        7.4628940E-12
  -5.950000        1.1837317E-11
  -5.900000        2.1980241E-11
  -5.850000        3.3931351E-11
  -5.800000        3.7117240E-11
  -5.750000        1.6180893E-11
  -5.700000       -4.2625594E-11
  -5.650000       -1.4117237E-10
  -5.600000       -2.5865635E-10
  -5.550000       -3.4603950E-10
  -5.500000       -3.3221020E-10
  -5.450000       -1.4607536E-10
  -5.400000        2.4696839E-10
  -5.350000        8.0393969E-10
  -5.300000        1.3761545E-09
  -5.250000        1.7151228E-09
  -5.200000        1.5286123E-09
  -5.150000        5.8799682E-10
  -5.100000       -1.1351581E-09
  -5.050000       -3.3497027E-09
  -5.000000       -5.4042677E-09
  -4.950000       -6.3815975E-09
  -4.900000       -5.3514668E-09
  -4.850000       -1.7481356E-09
  -4.800000        4.2300483E-09
  -4.750000        1.1355425E-08
  -4.700000        1.7407439E-08
  -4.650000        1.9623162E-08
  -4.600000        1.5550691E-08
  -4.550000        4.1261021E-09
  -4.500000       -1.3365401E-08
  -4.450000       -3.2867217E-08
  -4.400000       -4.8035687E-08
  -4.350000       -5.1776929E-08
  -4.300000       -3.8623089E-08
  -4.250000       -7.3338660E-09
  -4.200000        3.7188752E-08
  -4.150000        8.3628514E-08
  -4.100000        1.1627089E-07
  -4.050000        1.1929212E-07
  -4.000000        8.2442540E-08
  -3.950000        6.4498948E-09
  -3.900000       -9.3939775E-08
  -3.850000       -1.9110429E-07
  -3.800000       -2.5067453E-07
  -3.750000       -2.4183549E-07
  -3.700000       -1.4922051E-07
  -3.650000        1.7484677E-08
  -3.600000        2.2032468E-07
  -3.550000        3.9909844E-07
  -3.500000        4.8685621E-07
  -3.450000        4.3171465E-07
  -3.400000        2.1873615E-07
  -3.350000       -1.1595475E-07
  -3.300000       -4.8575663E-07
  -3.250000       -7.7217464E-07
  -3.200000       -8.5898387E-07
  -3.150000       -6.7337766E-07
  -3.100000       -2.2102039E-07
  -3.050000        3.9884816E-07
  -3.000000        1.0080324E-06
  -2.950000        1.3949846E-06
  -2.900000        1.3818151E-06
  -2.850000        8.9343132E-07
  -2.800000        4.6847526E-09
  -2.750000       -1.0557261E-06
  -2.700000       -1.9547692E-06
  -2.650000       -2.3511514E-06
  -2.600000       -2.0131183E-06
  -2.550000       -9.2046980E-07
  -2.500000        6.8838608E-07
  -2.450000        2.3515081E-06
  -2.400000        3.5037012E-06
  -2.350000        3.6553165E-06
  -2.300000        2.5771328E-06
  -2.250000        4.2701396E-07
  -2.200000       -2.2369206E-06
  -2.150000       -4.5815050E-06
  -2.100000       -5.7423044E-06
  -2.050000       -5.1205038E-06
  -2.000000       -2.6372531E-06
  -1.950000        1.1516466E-06
  -1.900000        5.1448496E-06
  -1.850000        7.9911106E-06
  -1.800000        8.5214024E-06
  -1.750000        6.1875571E-06
  -1.700000        1.3536616E-06
  -1.650000       -4.6863765E-06
  -1.600000       -1.0015260E-05
  -1.550000       -1.2666260E-05
  -1.500000       -1.1304697E-05
  -1.450000       -5.7936336E-06
  -1.400000        2.5735135E-06
  -1.350000        1.1306834E-05
  -1.300000        1.7409633E-05
  -1.250000        1.8350867E-05
  -1.200000        1.3021412E-05
  -1.150000        2.3358095E-06
  -1.100000       -1.0784619E-05
  -1.050000       -2.2133225E-05
  -1.000000       -2.7495253E-05
 -0.9500000       -2.4115279E-05
 -0.9000000       -1.1869678E-05
 -0.8500000        6.3076009E-06
 -0.8000000        2.5001498E-05
 -0.7500000        3.7836078E-05
 -0.7000000        3.9543542E-05
 -0.6500000        2.7939874E-05
 -0.6000000        5.1104316E-06
 -0.5500000       -2.2714376E-05
 -0.5000000       -4.6728168E-05
 -0.4500000       -5.8216654E-05
 -0.4000000       -5.1552790E-05
 -0.3500000       -2.6532762E-05
 -0.3000000        1.0835629E-05
 -0.2500000        4.9562830E-05
 -0.2000000        7.6764569E-05
 -0.1500000        8.1787875E-05
 -0.1000000        6.0100050E-05
 -5.0000001E-02    1.5587679E-05
  0.0000000E+00   -3.9711300E-05
  5.0000001E-02   -8.8663342E-05
  0.1000000       -1.1418309E-04
  0.1500000       -1.0497358E-04
  0.2000000       -5.9994214E-05
  0.2500000        9.9971066E-06
  0.3000000        8.4683452E-05
  0.3500000        1.3988464E-04
  0.4000000        1.5518369E-04
  0.4500000        1.2114105E-04
  0.5000000        4.3634675E-05
  0.5500000       -5.6437042E-05
  0.6000000       -1.4848421E-04
  0.6500000       -2.0134095E-04
  0.7000000       -1.9352531E-04
  0.7500000       -1.2134419E-04
  0.8000000       -1.9327215E-06
  0.8500000        1.3029497E-04
  0.9000000        2.3326075E-04
  0.9500000        2.7031614E-04
   1.000000        2.2281881E-04
   1.050000        9.7988333E-05
   1.100000       -7.1002039E-05
   1.150000       -2.3345269E-04
   1.200000       -3.3609336E-04
   1.250000       -3.4024197E-04
   1.300000       -2.3572188E-04
   1.350000       -4.6677436E-05
   1.400000        1.7332728E-04
   1.450000        3.5624253E-04
   1.500000        4.4045443E-04
   1.550000        3.9133773E-04
   1.600000        2.1467096E-04
   1.650000       -4.2064610E-05
   1.700000       -3.0191179E-04
   1.750000       -4.8126327E-04
   1.800000       -5.1664357E-04
   1.850000       -3.8697239E-04
   1.900000       -1.2364585E-04
   1.950000        1.9582917E-04
   2.000000        4.6983836E-04
   2.050000        6.0428755E-04
   2.100000        5.4421066E-04
   2.150000        2.9495690E-04
   2.200000       -7.4825468E-05
   2.250000       -4.5081603E-04
   2.300000       -7.0709834E-04
   2.350000       -7.4679003E-04
   2.400000       -5.3642388E-04
   2.450000       -1.2230997E-04
   2.500000        3.7789627E-04
   2.550000        8.0763258E-04
   2.600000        1.0192019E-03
   2.650000        9.2254352E-04
   2.700000        5.1925523E-04
   2.750000       -9.0286863E-05
   2.800000       -7.3106150E-04
   2.850000       -1.2033926E-03
   2.900000       -1.3446419E-03
   2.950000       -1.0836988E-03
   3.000000       -4.7033175E-04
   3.050000        3.3173029E-04
   3.100000        1.0882766E-03
   3.150000        1.5632928E-03
   3.200000        1.5927176E-03
   3.250000        1.1402598E-03
   3.300000        3.1652776E-04
   3.350000       -6.4676831E-04
   3.400000       -1.4620328E-03
   3.450000       -1.8721164E-03
   3.500000       -1.7317567E-03
   3.550000       -1.0582581E-03
   3.600000       -3.3917360E-05
   3.650000        1.0429830E-03
   3.700000        1.8456521E-03
   3.750000        2.1190378E-03
   3.800000        1.7618875E-03
   3.850000        8.6400239E-04
   3.900000       -3.1492632E-04
   3.950000       -1.4205974E-03
   4.000000       -2.1118664E-03
   4.050000       -2.1681546E-03
   4.100000       -1.5624652E-03
   4.150000       -4.7553706E-04
   4.200000        7.5552124E-04
   4.250000        1.7401126E-03
   4.300000        2.1575815E-03
   4.350000        1.8624420E-03
   4.400000        9.3702396E-04
   4.450000       -3.2730110E-04
   4.500000       -1.5169410E-03
   4.550000       -2.2256221E-03
   4.600000       -2.1866546E-03
   4.650000       -1.3655580E-03
   4.700000        1.8157663E-05
   4.750000        1.5496816E-03
   4.800000        2.7422374E-03
   4.850000        3.1880029E-03
   4.900000        2.6895052E-03
   4.950000        1.3291304E-03
   5.000000       -5.4711022E-04
   5.050000       -2.4286914E-03
   5.100000       -3.7931460E-03
   5.150000       -4.2648991E-03
   5.200000       -3.7301795E-03
   5.250000       -2.3709298E-03
   5.300000       -6.0611009E-04
   5.350000        1.0414828E-03
   5.400000        2.1104021E-03
   5.450000        2.3442591E-03
   5.500000        1.7670096E-03
   5.550000        6.6501345E-04
   5.600000       -5.1822705E-04
   5.650000       -1.3392017E-03
   5.700000       -1.5100664E-03
   5.750000       -9.9911890E-04
   5.800000       -4.0425322E-05
   5.850000        9.5228857E-04
   5.900000        1.5389036E-03
   5.950000        1.4202524E-03
   6.000000        5.5939495E-04
   6.050000       -7.8938686E-04
   6.100000       -2.1592672E-03
   6.150000       -3.0348776E-03
   6.200000       -3.0472055E-03
   6.250000       -2.1302619E-03
   6.300000       -5.7927507E-04
   6.350000        1.0192243E-03
   6.400000        1.9718308E-03
   6.450000        1.7218214E-03
   6.500000        7.0917726E-05
   6.550000       -2.7010860E-03
   6.600000       -5.8709104E-03
   6.650000       -8.4641837E-03
   6.700000       -9.5556872E-03
   6.750000       -8.5863126E-03
   6.800000       -5.5924826E-03
   6.850000       -1.2635196E-03
   6.900000        3.2072240E-03
   6.950000        6.4471466E-03
   7.000000        7.3146909E-03
   7.050000        5.2708569E-03
   7.100000        5.9064390E-04
   7.150000       -5.6633768E-03
   7.200000       -1.1912640E-02
   7.250000       -1.6509572E-02
   7.300000       -1.8230477E-02
   7.350000       -1.6663443E-02
   7.400000       -1.2365954E-02
   7.450000       -6.7320708E-03
   7.500000       -1.5982413E-03
   7.550000        1.3011447E-03
   7.600000        8.6640706E-04
   7.650000       -3.0131070E-03
   7.700000       -9.3973484E-03
   7.750000       -1.6556513E-02
   7.800000       -2.2482403E-02
   7.850000       -2.5501266E-02
   7.900000       -2.4799755E-02
   7.950000       -2.0700917E-02
   8.000000       -1.4597415E-02
   8.050000       -8.5559413E-03
   8.100000       -4.7071762E-03
   8.150000       -4.6049440E-03
   8.200000       -8.7510459E-03
   8.250000       -1.6435524E-02
   8.300000       -2.5944196E-02
   8.350000       -3.5074465E-02
   8.400000       -4.1801900E-02
   8.450000       -4.4891723E-02
   8.500000       -4.4265348E-02
   8.550000       -4.1007847E-02
   8.600000       -3.7008215E-02
   8.650000       -3.4348164E-02
   8.700000       -3.4629196E-02
   8.750000       -3.8451456E-02
   8.800000       -4.5214593E-02
   8.850000       -5.3305291E-02
   8.900000       -6.0620517E-02
   8.950000       -6.5263666E-02
   9.000000       -6.6190392E-02
   9.050000       -6.3602068E-02
   9.100000       -5.8949299E-02
   9.150000       -5.4531302E-02
   9.200000       -5.2817937E-02
   9.250000       -5.5686064E-02
   9.300000       -6.3816622E-02
   9.350000       -7.6435074E-02
   9.400000       -9.1492809E-02
   9.450000       -0.1062378    
   9.500000       -0.1180049    
   9.550000       -0.1249942    
   9.600000       -0.1268014    
   9.650000       -0.1245353    
   9.700000       -0.1204893    
   9.750000       -0.1174706    
   9.800000       -0.1179730    
   9.850000       -0.1234508    
   9.900000       -0.1339121    
   9.950000       -0.1479364    
