  -10.00000        3.4906337E-32
  -9.950000        1.0471902E-31
  -9.900000        1.7453168E-31
  -9.850000        2.6948967E-31
  -9.800000        4.5671393E-31
  -9.750000        7.0423124E-31
  -9.700000        9.9572685E-31
  -9.650000        1.2259652E-30
  -9.600000        1.6571959E-30
  -9.550000       -4.2304915E-28
  -9.500000       -6.1080857E-27
  -9.450000       -4.3348289E-26
  -9.400000       -2.0313071E-25
  -9.350000       -7.1661313E-25
  -9.300000       -2.1029939E-24
  -9.250000       -5.6920685E-24
  -9.200000       -1.5438735E-23
  -9.150000       -4.2110465E-23
  -9.100000       -1.0776746E-22
  -9.050000       -2.3806865E-22
  -9.000000       -4.1459518E-22
  -8.950000       -4.6101794E-22
  -8.900000        9.6175725E-23
  -8.850000        1.9751181E-21
  -8.800000        5.4444713E-21
  -8.750000        8.5327784E-21
  -8.700000        4.4453155E-21
  -8.650000       -1.9514238E-20
  -8.600000       -7.6422642E-20
  -8.550000       -1.6131707E-19
  -8.500000       -2.1860184E-19
  -8.450000       -1.0999972E-19
  -8.400000        3.7607831E-19
  -8.350000        1.4105965E-18
  -8.300000        2.8551404E-18
  -8.250000        3.8756228E-18
  -8.200000        2.6555990E-18
  -8.150000       -3.3524011E-18
  -8.100000       -1.6095093E-17
  -8.050000       -3.4227754E-17
  -8.000000       -4.9642672E-17
  -7.950000       -4.5212316E-17
  -7.900000        2.8273796E-18
  -7.850000        1.1415754E-16
  -7.800000        2.8400798E-16
  -7.750000        4.5782740E-16
  -7.700000        5.1444853E-16
  -7.650000        2.7898266E-16
  -7.600000       -4.1315760E-16
  -7.550000       -1.5944303E-15
  -7.500000       -3.0118416E-15
  -7.450000       -4.0134395E-15
  -7.400000       -3.5833420E-15
  -7.350000       -6.3311229E-16
  -7.300000        5.4123508E-15
  -7.250000        1.3844915E-14
  -7.200000        2.2026201E-14
  -7.150000        2.5330854E-14
  -7.100000        1.8150861E-14
  -7.050000       -3.8336732E-15
  -7.000000       -4.0474243E-14
  -6.950000       -8.4155481E-14
  -6.900000       -1.1867345E-13
  -6.850000       -1.2174300E-13
  -6.800000       -7.2039793E-14
  -6.750000        4.0133190E-14
  -6.700000        2.0181762E-13
  -6.650000        3.7120055E-13
  -6.600000        4.8168744E-13
  -6.550000        4.5927758E-13
  -6.500000        2.5113472E-13
  -6.450000       -1.4322269E-13
  -6.400000       -6.5169544E-13
  -6.350000       -1.1341130E-12
  -6.300000       -1.4183097E-12
  -6.250000       -1.3610677E-12
  -6.200000       -9.1159263E-13
  -6.150000       -1.4530975E-13
  -6.100000        7.5994587E-13
  -6.050000        1.6104549E-12
  -6.000000        2.3138702E-12
  -5.950000        2.9588383E-12
  -5.900000        3.7756365E-12
  -5.850000        4.9282700E-12
  -5.800000        6.1719514E-12
  -5.750000        6.5254737E-12
  -5.700000        4.2058939E-12
  -5.650000       -2.9156779E-12
  -5.600000       -1.6213959E-11
  -5.550000       -3.4737973E-11
  -5.500000       -5.3731720E-11
  -5.450000       -6.4140387E-11
  -5.400000       -5.4053241E-11
  -5.350000       -1.2630713E-11
  -5.300000        6.3859466E-11
  -5.250000        1.6554431E-10
  -5.200000        2.6482197E-10
  -5.150000        3.1793759E-10
  -5.100000        2.7477212E-10
  -5.050000        9.6958677E-11
  -5.000000       -2.1924326E-10
  -4.950000       -6.2281463E-10
  -4.900000       -1.0006239E-09
  -4.850000       -1.1922681E-09
  -4.800000       -1.0315527E-09
  -4.750000       -4.0993381E-10
  -4.700000        6.5398059E-10
  -4.650000        1.9642579E-09
  -4.600000        3.1452529E-09
  -4.550000        3.7081915E-09
  -4.500000        3.1891048E-09
  -4.450000        1.3332517E-09
  -4.400000       -1.7268202E-09
  -4.350000       -5.3702349E-09
  -4.300000       -8.5311989E-09
  -4.250000       -9.9236575E-09
  -4.200000       -8.4281568E-09
  -4.150000       -3.5537848E-09
  -4.100000        4.1701984E-09
  -4.050000        1.3041060E-08
  -4.000000        2.0402334E-08
  -3.950000        2.3276636E-08
  -3.900000        1.9311901E-08
  -3.850000        7.7955535E-09
  -3.800000       -9.6083399E-09
  -3.750000       -2.8745403E-08
  -3.700000       -4.3702059E-08
  -3.650000       -4.8360242E-08
  -3.600000       -3.8451589E-08
  -3.550000       -1.3518417E-08
  -3.500000        2.1937502E-08
  -3.450000        5.8736585E-08
  -3.400000        8.5001162E-08
  -3.350000        8.9563628E-08
  -3.300000        6.5957600E-08
  -3.250000        1.5731496E-08
  -3.200000       -5.0239478E-08
  -3.150000       -1.1337154E-07
  -3.100000       -1.5202758E-07
  -3.050000       -1.4826534E-07
  -3.000000       -9.4780248E-08
  -2.950000        3.4722961E-10
  -2.900000        1.1323779E-07
  -2.850000        2.0920137E-07
  -2.800000        2.5251322E-07
  -2.750000        2.1854125E-07
  -2.700000        1.0444975E-07
  -2.650000       -6.5568329E-08
  -2.600000       -2.4346534E-07
  -2.550000       -3.6946921E-07
  -2.500000       -3.9066020E-07
  -2.450000       -2.8070764E-07
  -2.400000       -5.4038491E-08
  -2.350000        2.3161866E-07
  -2.300000        4.8741566E-07
  -2.250000        6.1876699E-07
  -2.200000        5.5744573E-07
  -2.150000        2.9031528E-07
  -2.100000       -1.2605926E-07
  -2.050000       -5.7265942E-07
  -2.000000       -8.9854171E-07
  -1.950000       -9.6808992E-07
  -1.900000       -7.1133974E-07
  -1.850000       -1.6019327E-07
  -1.800000        5.4473475E-07
  -1.750000        1.1842318E-06
  -1.700000        1.5234602E-06
  -1.650000        1.3913940E-06
  -1.600000        7.5169271E-07
  -1.550000       -2.6131309E-07
  -1.500000       -1.3601035E-06
  -1.450000       -2.1779022E-06
  -1.400000       -2.3827774E-06
  -1.350000       -1.7988563E-06
  -1.300000       -4.9360739E-07
  -1.250000        1.2047886E-06
  -1.200000        2.7775300E-06
  -1.150000        3.6627414E-06
  -1.100000        3.4419816E-06
  -1.050000        2.0075452E-06
  -1.000000       -3.5021515E-07
 -0.9500000       -2.9783032E-06
 -0.9000000       -5.0263866E-06
 -0.8500000       -5.7055968E-06
 -0.8000000       -4.5667280E-06
 -0.7500000       -1.7058024E-06
 -0.7000000        2.1841358E-06
 -0.6500000        5.9558047E-06
 -0.6000000        8.3256846E-06
 -0.5500000        8.2854867E-06
 -0.5000000        5.4817483E-06
 -0.4500000        4.3094755E-07
 -0.4000000       -5.5258888E-06
 -0.3500000       -1.0550867E-05
 -0.3000000       -1.2849167E-05
 -0.2500000       -1.1270315E-05
 -0.2000000       -5.7787438E-06
 -0.1500000        2.3806590E-06
 -0.1000000        1.0917894E-05
 -5.0000001E-02    1.7109205E-05
  0.0000000E+00    1.8631561E-05
  5.0000001E-02    1.4373763E-05
  0.1000000        4.9542509E-06
  0.1500000       -7.2613448E-06
  0.2000000       -1.8710492E-05
  0.2500000       -2.5640986E-05
  0.3000000       -2.5300840E-05
  0.3500000       -1.6944246E-05
  0.4000000       -2.3044183E-06
  0.4500000        1.4681687E-05
  0.5000000        2.8891967E-05
  0.5500000        3.5533245E-05
  0.6000000        3.1714313E-05
  0.6500000        1.7574659E-05
  0.7000000       -3.4439340E-06
  0.7500000       -2.5360943E-05
  0.8000000       -4.1316445E-05
  0.8500000       -4.5681740E-05
  0.9000000       -3.5985071E-05
  0.9500000       -1.4011935E-05
   1.000000        1.4357035E-05
   1.050000        4.0641949E-05
   1.100000        5.6239951E-05
   1.150000        5.5177024E-05
   1.200000        3.6273832E-05
   1.250000        3.9715915E-06
   1.300000       -3.2573986E-05
   1.350000       -6.1999781E-05
   1.400000       -7.4183554E-05
   1.450000       -6.3609230E-05
   1.500000       -3.1558317E-05
   1.550000        1.3683431E-05
   1.600000        5.8848713E-05
   1.650000        8.9489477E-05
   1.700000        9.4493014E-05
   1.750000        6.9927897E-05
   1.800000        2.0929510E-05
   1.850000       -3.9146755E-05
   1.900000       -9.2266469E-05
   1.950000       -1.2104740E-04
   2.000000       -1.1432912E-04
   2.050000       -7.1225571E-05
   2.100000       -2.2470897E-06
   2.150000        7.3100280E-05
   2.200000        1.3175409E-04
   2.250000        1.5408371E-04
   2.300000        1.3033008E-04
   2.350000        6.4414220E-05
   2.400000       -2.6287698E-05
   2.450000       -1.1542691E-04
   2.500000       -1.7531040E-04
   2.550000       -1.8548433E-04
   2.600000       -1.3962312E-04
   2.650000       -4.8428756E-05
   2.700000        6.2646657E-05
   2.750000        1.6047640E-04
   2.800000        2.1420325E-04
   2.850000        2.0508074E-04
   2.900000        1.3307710E-04
   2.950000        1.7934113E-05
   3.000000       -1.0600653E-04
   3.050000       -1.9994794E-04
   3.100000       -2.3281807E-04
   3.150000       -1.9170331E-04
   3.200000       -8.7066066E-05
   3.250000        4.9276547E-05
   3.300000        1.7323914E-04
   3.350000        2.4215506E-04
   3.400000        2.2894301E-04
   3.450000        1.3218701E-04
   3.500000       -2.1442787E-05
   3.550000       -1.8378513E-04
   3.600000       -2.9934332E-04
   3.650000       -3.2299620E-04
   3.700000       -2.3580917E-04
   3.750000       -5.3681339E-05
   3.800000        1.7453947E-04
   3.850000        3.7973106E-04
   3.900000        4.9278780E-04
   3.950000        4.6668074E-04
   4.000000        2.9342345E-04
   4.050000        1.0164021E-05
   4.100000       -3.0838160E-04
   4.150000       -5.6984887E-04
   4.200000       -6.9121370E-04
   4.250000       -6.2496820E-04
   4.300000       -3.7629070E-04
   4.350000       -5.2502992E-06
   4.400000        3.8766296E-04
   4.450000        6.8932580E-04
   4.500000        8.0737722E-04
   4.550000        6.9928198E-04
   4.600000        3.8784501E-04
   4.650000       -4.2398409E-05
   4.700000       -4.6789518E-04
   4.750000       -7.6193671E-04
   4.800000       -8.3328882E-04
   4.850000       -6.5575418E-04
   4.900000       -2.7898455E-04
   4.950000        1.8383635E-04
   5.000000        5.8883755E-04
   5.050000        8.0566027E-04
   5.100000        7.5975159E-04
   5.150000        4.5932067E-04
   5.200000       -2.4478775E-06
   5.250000       -4.7211672E-04
   5.300000       -7.8151771E-04
   5.350000       -8.0102502E-04
   5.400000       -4.8428730E-04
   5.450000        1.1022531E-04
   5.500000        8.2917878E-04
   5.550000        1.4648577E-03
   5.600000        1.8156284E-03
   5.650000        1.7489672E-03
   5.700000        1.2477452E-03
   5.750000        4.2442008E-04
   5.800000       -5.0329627E-04
   5.850000       -1.2703069E-03
   5.900000       -1.6400195E-03
   5.950000       -1.4763570E-03
   6.000000       -7.8994693E-04
   6.050000        2.5683007E-04
   6.100000        1.3896360E-03
   6.150000        2.2972049E-03
   6.200000        2.7209483E-03
   6.250000        2.5331420E-03
   6.300000        1.7799708E-03
   6.350000        6.7518477E-04
   6.400000       -4.5571249E-04
   6.450000       -1.2660871E-03
   6.500000       -1.4880553E-03
   6.550000       -1.0124315E-03
   6.600000        7.5472984E-05
   6.650000        1.5160234E-03
   6.700000        2.9469416E-03
   6.750000        4.0065763E-03
   6.800000        4.4389544E-03
   6.850000        4.1695735E-03
   6.900000        3.3289448E-03
   6.950000        2.2160269E-03
   7.000000        1.2115373E-03
   7.050000        6.6631386E-04
   7.100000        7.9783355E-04
   7.150000        1.6260479E-03
   7.200000        2.9682966E-03
   7.250000        4.4954526E-03
   7.300000        5.8328519E-03
   7.350000        6.6756941E-03
   7.400000        6.8837139E-03
   7.450000        6.5257899E-03
   7.500000        5.8601205E-03
   7.550000        5.2553015E-03
   7.600000        5.0760703E-03
   7.650000        5.5688755E-03
   7.700000        6.7831716E-03
   7.750000        8.5538635E-03
   7.800000        1.0551659E-02
   7.850000        1.2386857E-02
   7.900000        1.3734810E-02
   7.950000        1.4443656E-02
   8.000000        1.4589313E-02
   8.050000        1.4458504E-02
   8.100000        1.4462832E-02
   8.150000        1.5009047E-02
   8.200000        1.6365530E-02
   8.250000        1.8567892E-02
   8.300000        2.1395801E-02
   8.350000        2.4431923E-02
   8.400000        2.7188158E-02
   8.450000        2.9262345E-02
   8.500000        3.0477189E-02
   8.550000        3.0956434E-02
   8.600000        3.1110840E-02
   8.650000        3.1533480E-02
   8.700000        3.2832090E-02
   8.750000        3.5447020E-02
   8.800000        3.9510079E-02
   8.850000        4.4789344E-02
   8.900000        5.0740559E-02
   8.950000        5.6654032E-02
   9.000000        6.1856493E-02
   9.050000        6.5909214E-02
   9.100000        6.8743117E-02
   9.150000        7.0688874E-02
   9.200000        7.2390579E-02
   9.250000        7.4626543E-02
   9.300000        7.8089043E-02
   9.350000        8.3188109E-02
   9.400000        8.9938164E-02
   9.450000        9.7961999E-02
   9.500000        0.1066111    
   9.550000        0.1151667    
   9.600000        0.1230598    
   9.650000        0.1300447    
   9.700000        0.1362722    
   9.750000        0.1422401    
   9.800000        0.1486382    
   9.850000        0.1561342    
   9.900000        0.1651682    
   9.950000        0.1758187    
