  -10.00000        1.3962534E-30
  -9.950000        1.3962534E-30
  -9.900000        1.3962534E-30
  -9.850000        2.4020648E-30
  -9.800000        5.0869042E-30
  -9.750000        4.8137870E-30
  -9.700000        6.8460392E-30
  -9.650000        2.3634943E-30
  -9.600000        1.4885735E-29
  -9.550000       -1.7003140E-26
  -9.500000       -2.1039832E-25
  -9.450000       -1.2792098E-24
  -9.400000       -5.1120869E-24
  -9.350000       -1.5427212E-23
  -9.300000       -4.0028023E-23
  -9.250000       -1.0353495E-22
  -9.200000       -2.8633172E-22
  -9.150000       -7.8053760E-22
  -9.100000       -1.8457423E-21
  -9.050000       -3.3663058E-21
  -9.000000       -3.6947549E-21
  -8.950000        1.8378416E-21
  -8.900000        2.0449905E-20
  -8.850000        5.4707793E-20
  -8.800000        8.4066346E-20
  -8.750000        3.9465908E-20
  -8.700000       -2.0296440E-19
  -8.650000       -7.5541763E-19
  -8.600000       -1.5209185E-18
  -8.550000       -1.8748586E-18
  -8.500000       -4.1653163E-19
  -8.450000        4.7606159E-18
  -8.400000        1.4682504E-17
  -8.350000        2.6698220E-17
  -8.300000        3.1083538E-17
  -8.250000        9.7357562E-18
  -8.200000       -5.8536707E-17
  -8.150000       -1.8178329E-16
  -8.100000       -3.2792439E-16
  -8.050000       -3.9738209E-16
  -8.000000       -2.1921451E-16
  -7.950000        3.9642876E-16
  -7.900000        1.5251589E-15
  -7.850000        2.9280474E-15
  -7.800000        3.8659702E-15
  -7.750000        3.0868053E-15
  -7.700000       -8.2195828E-16
  -7.650000       -8.5966780E-15
  -7.600000       -1.9088933E-14
  -7.550000       -2.8161972E-14
  -7.500000       -2.8534477E-14
  -7.450000       -1.1529436E-14
  -7.400000        2.8733333E-14
  -7.350000        8.9275843E-14
  -7.300000        1.5254266E-13
  -7.250000        1.8475990E-13
  -7.200000        1.4249151E-13
  -7.150000       -1.0305350E-14
  -7.100000       -2.7689434E-13
  -7.050000       -6.0248708E-13
  -7.000000       -8.6313573E-13
  -6.950000       -8.8411375E-13
  -6.900000       -4.9660493E-13
  -6.850000        3.7382269E-13
  -6.800000        1.6143057E-12
  -6.750000        2.8726134E-12
  -6.700000        3.5947632E-12
  -6.650000        3.1805541E-12
  -6.600000        1.2389225E-12
  -6.550000       -2.1353186E-12
  -6.500000       -6.1903954E-12
  -6.450000       -9.5838996E-12
  -6.400000       -1.0755011E-11
  -6.350000       -8.5416908E-12
  -6.300000       -2.8261755E-12
  -6.250000        5.1158526E-12
  -6.200000        1.2863151E-11
  -6.150000        1.7788165E-11
  -6.100000        1.8422059E-11
  -6.050000        1.5598304E-11
  -6.000000        1.2538313E-11
  -5.950000        1.3260406E-11
  -5.900000        1.9411516E-11
  -5.850000        2.6693826E-11
  -5.800000        2.3053446E-11
  -5.750000       -8.9125807E-12
  -5.700000       -8.3870612E-11
  -5.650000       -2.0099225E-10
  -5.600000       -3.3093897E-10
  -5.550000       -4.1002168E-10
  -5.500000       -3.4972808E-10
  -5.450000       -6.6618572E-11
  -5.400000        4.7010446E-10
  -5.350000        1.1867968E-09
  -5.300000        1.8728106E-09
  -5.250000        2.1945830E-09
  -5.200000        1.7765238E-09
  -5.150000        3.4810066E-10
  -5.100000       -2.0747195E-09
  -5.050000       -5.0378186E-09
  -5.000000       -7.6102582E-09
  -4.950000       -8.5325977E-09
  -4.900000       -6.5797754E-09
  -4.850000       -1.0859886E-09
  -4.800000        7.5146041E-09
  -4.750000        1.7350152E-08
  -4.700000        2.5206424E-08
  -4.650000        2.7204665E-08
  -4.600000        2.0035143E-08
  -4.550000        2.4824018E-09
  -4.500000       -2.3245873E-08
  -4.450000       -5.0988241E-08
  -4.400000       -7.1414625E-08
  -4.350000       -7.4321960E-08
  -4.300000       -5.2116601E-08
  -4.250000       -3.5817269E-09
  -4.200000        6.3401743E-08
  -4.150000        1.3157313E-07
  -4.100000        1.7738620E-07
  -4.050000        1.7744829E-07
  -4.000000        1.1700275E-07
  -3.950000       -2.0307029E-09
  -3.900000       -1.5655863E-07
  -3.850000       -3.0409532E-07
  -3.800000       -3.9206040E-07
  -3.750000       -3.7342210E-07
  -3.700000       -2.2484419E-07
  -3.650000        3.8516919E-08
  -3.600000        3.5782918E-07
  -3.550000        6.3949773E-07
  -3.500000        7.7873915E-07
  -3.450000        6.9322425E-07
  -3.400000        3.5735869E-07
  -3.350000       -1.7485986E-07
  -3.300000       -7.6938124E-07
  -3.250000       -1.2396628E-06
  -3.200000       -1.3991762E-06
  -3.150000       -1.1261067E-06
  -3.100000       -4.2013500E-07
  -3.050000        5.7062471E-07
  -3.000000        1.5687791E-06
  -2.950000        2.2363199E-06
  -2.900000        2.2793022E-06
  -2.850000        1.5592414E-06
  -2.800000        1.7323273E-07
  -2.750000       -1.5321116E-06
  -2.700000       -3.0315484E-06
  -2.650000       -3.7691750E-06
  -2.600000       -3.3467052E-06
  -2.550000       -1.6934503E-06
  -2.500000        8.4580972E-07
  -2.450000        3.5522933E-06
  -2.400000        5.5144724E-06
  -2.350000        5.9118138E-06
  -2.300000        4.3200644E-06
  -2.250000        9.3398887E-07
  -2.200000       -3.3868378E-06
  -2.150000       -7.2983798E-06
  -2.100000       -9.3566014E-06
  -2.050000       -8.5074034E-06
  -2.000000       -4.5278880E-06
  -1.950000        1.7459588E-06
  -1.900000        8.5240490E-06
  -1.850000        1.3521811E-05
  -1.800000        1.4675308E-05
  -1.750000        1.0904573E-05
  -1.700000        2.6645632E-06
  -1.650000       -7.9472129E-06
  -1.600000       -1.7640838E-05
  -1.550000       -2.2879394E-05
  -1.500000       -2.1072223E-05
  -1.450000       -1.1639720E-05
  -1.400000        3.4447057E-06
  -1.350000        1.9912142E-05
  -1.300000        3.2297812E-05
  -1.250000        3.5638026E-05
  -1.200000        2.7271622E-05
  -1.150000        8.1368307E-06
  -1.100000       -1.6967226E-05
  -1.050000       -4.0410221E-05
  -1.000000       -5.3900185E-05
 -0.9500000       -5.1223338E-05
 -0.9000000       -3.0700001E-05
 -0.8500000        3.5316068E-06
 -0.8000000        4.2023134E-05
 -0.7500000        7.2413888E-05
 -0.7000000        8.3183637E-05
 -0.6500000        6.7683119E-05
 -0.6000000        2.7112084E-05
 -0.5500000       -2.8720024E-05
 -0.5000000       -8.3429491E-05
 -0.4500000       -1.1860255E-04
 -0.4000000       -1.1967091E-04
 -0.3500000       -8.1328202E-05
 -0.3000000       -1.0603757E-05
 -0.2500000        7.3757852E-05
 -0.2000000        1.4590495E-04
 -0.1500000        1.8047116E-04
 -0.1000000        1.6101824E-04
 -5.0000001E-02    8.6634274E-05
  0.0000000E+00   -2.5740055E-05
  5.0000001E-02   -1.4457185E-04
  0.1000000       -2.3220865E-04
  0.1500000       -2.5641517E-04
  0.2000000       -2.0155072E-04
  0.2500000       -7.5669028E-05
  0.3000000        8.9274843E-05
  0.3500000        2.4498891E-04
  0.4000000        3.4060414E-04
  0.4500000        3.3884007E-04
  0.5000000        2.2957104E-04
  0.5500000        3.6080059E-05
  0.6000000       -1.8883726E-04
  0.6500000       -3.7674891E-04
  0.7000000       -4.6399480E-04
  0.7500000       -4.1268553E-04
  0.8000000       -2.2553449E-04
  0.8500000        5.0922703E-05
  0.9000000        3.3694407E-04
  0.9500000        5.4198143E-04
   1.000000        5.9277733E-04
   1.050000        4.5861930E-04
   1.100000        1.6530071E-04
   1.150000       -2.0781779E-04
   1.200000       -5.4830982E-04
   1.250000       -7.4377982E-04
   1.300000       -7.1804319E-04
   1.350000       -4.5898854E-04
   1.400000       -2.8362616E-05
   1.450000        4.5133563E-04
   1.500000        8.3070085E-04
   1.550000        9.7896892E-04
   1.600000        8.2764227E-04
   1.650000        3.9798825E-04
   1.700000       -1.9784659E-04
   1.750000       -7.8475807E-04
   1.800000       -1.1751775E-03
   1.850000       -1.2278729E-03
   1.900000       -8.9691574E-04
   1.950000       -2.5432161E-04
   2.000000        5.2305294E-04
   2.050000        1.2010889E-03
   2.100000        1.5580503E-03
   2.150000        1.4558445E-03
   2.200000        8.9030759E-04
   2.250000        2.8772977E-06
   2.300000       -9.5302239E-04
   2.350000       -1.6836121E-03
   2.400000       -1.9444646E-03
   2.450000       -1.6211037E-03
   2.500000       -7.7423605E-04
   2.550000        3.6727943E-04
   2.600000        1.4671683E-03
   2.650000        2.1806061E-03
   2.700000        2.2624102E-03
   2.750000        1.6507794E-03
   2.800000        4.9829419E-04
   2.850000       -8.6319481E-04
   2.900000       -2.0169506E-03
   2.950000       -2.5887690E-03
   3.000000       -2.3688565E-03
   3.050000       -1.3888002E-03
   3.100000        7.3995179E-05
   3.150000        1.5705952E-03
   3.200000        2.6148946E-03
   3.250000        2.8388100E-03
   3.300000        2.1196937E-03
   3.350000        6.3694338E-04
   3.400000       -1.1654246E-03
   3.450000       -2.7048155E-03
   3.500000       -3.4403764E-03
   3.550000       -3.0533173E-03
   3.600000       -1.5690096E-03
   3.650000        6.2289310E-04
   3.700000        2.8645885E-03
   3.750000        4.4205249E-03
   3.800000        4.7083073E-03
   3.850000        3.4993561E-03
   3.900000        1.0229130E-03
   3.950000       -2.0671946E-03
   4.000000       -4.8630969E-03
   4.050000       -6.4672800E-03
   4.100000       -6.2745446E-03
   4.150000       -4.1841469E-03
   4.200000       -6.7044585E-04
   4.250000        3.3202651E-03
   4.300000        6.6268356E-03
   4.350000        8.2147801E-03
   4.400000        7.5017493E-03
   4.450000        4.5647621E-03
   4.500000        1.5729503E-04
   4.550000       -4.4811056E-03
   4.600000       -7.9763727E-03
   4.650000       -9.2333630E-03
   4.700000       -7.7865086E-03
   4.750000       -3.9751516E-03
   4.800000        1.1210670E-03
   4.850000        5.9803179E-03
   4.900000        9.0904692E-03
   4.950000        9.4223665E-03
   5.000000        6.7776819E-03
   5.050000        1.8952289E-03
   5.100000       -3.7315737E-03
   5.150000       -8.2856612E-03
   5.200000       -1.0185078E-02
   5.250000       -8.6016739E-03
   5.300000       -3.7743628E-03
   5.350000        2.9940705E-03
   5.400000        9.6754385E-03
   5.450000        1.4105066E-02
   5.500000        1.4653072E-02
   5.550000        1.0774083E-02
   5.600000        3.2567419E-03
   5.650000       -5.9231929E-03
   5.700000       -1.4125683E-02
   5.750000       -1.8807324E-02
   5.800000       -1.8301329E-02
   5.850000       -1.2379096E-02
   5.900000       -2.4094062E-03
   5.950000        8.9559061E-03
   6.000000        1.8500498E-02
   6.050000        2.3370584E-02
   6.100000        2.1941653E-02
   6.150000        1.4361112E-02
   6.200000        2.5886162E-03
   6.250000       -1.0100867E-02
   6.300000       -2.0025976E-02
   6.350000       -2.4165466E-02
   6.400000       -2.1070426E-02
   6.450000       -1.1344555E-02
   6.500000        2.4658232E-03
   6.550000        1.6559135E-02
   6.600000        2.6957043E-02
   6.650000        3.0664979E-02
   6.700000        2.6571754E-02
   6.750000        1.5813636E-02
   6.800000        1.4814889E-03
   6.850000       -1.2256710E-02
   6.900000       -2.1368442E-02
   6.950000       -2.3148268E-02
   7.000000       -1.7031314E-02
   7.050000       -4.7776150E-03
   7.100000        1.0038403E-02
   7.150000        2.3090161E-02
   7.200000        3.0599803E-02
   7.250000        3.0486442E-02
   7.300000        2.3009529E-02
   7.350000        1.0704153E-02
   7.400000       -2.3833441E-03
   7.450000       -1.1933616E-02
   7.500000       -1.4693179E-02
   7.550000       -9.4995955E-03
   7.600000        2.3303318E-03
   7.650000        1.7381882E-02
   7.700000        3.1189956E-02
   7.750000        3.9637700E-02
   7.800000        4.0274162E-02
   7.850000        3.3133734E-02
   7.900000        2.0784449E-02
   7.950000        7.5694215E-03
   8.000000       -1.7431385E-03
   8.050000       -3.4892550E-03
   8.100000        3.6623965E-03
   8.150000        1.8186135E-02
   8.200000        3.6073174E-02
   8.250000        5.2021261E-02
   8.300000        6.1095119E-02
   8.350000        6.0349829E-02
   8.400000        4.9899619E-02
   8.450000        3.3067904E-02
   8.500000        1.5525956E-02
   8.550000        3.6438098E-03
   8.600000        2.5323499E-03
   8.650000        1.4373279E-02
   8.700000        3.7571114E-02
   8.750000        6.7026019E-02
   8.800000        9.5496260E-02
   8.850000        0.1156743    
   8.900000        0.1223741    
   8.950000        0.1141648    
   9.000000        9.3933642E-02
   9.050000        6.8175212E-02
   9.100000        4.5181029E-02
   9.150000        3.2648981E-02
   9.200000        3.5419017E-02
   9.250000        5.4019600E-02
   9.300000        8.4480561E-02
   9.350000        0.1194822    
   9.400000        0.1505201    
   9.450000        0.1704333    
   9.500000        0.1755324    
   9.550000        0.1666893    
   9.600000        0.1490344    
   9.650000        0.1303638    
   9.700000        0.1187333    
   9.750000        0.1199821    
   9.800000        0.1359432    
   9.850000        0.1638990    
   9.900000        0.1974584    
   9.950000        0.2285641    
