  -10.00000        1.0000000E-24
  -9.950000        1.0000000E-24
  -9.900000        1.0000000E-24
  -9.850000        1.0000000E-24
  -9.800000        1.0000000E-24
  -9.750000        1.0000000E-24
  -9.700000        1.0000000E-24
  -9.650000        1.0000000E-24
  -9.600000        1.0000002E-24
  -9.550000        1.0000002E-24
  -9.500000        9.9995782E-25
  -9.450000        9.9938934E-25
  -9.400000        9.9562302E-25
  -9.350000        9.7907627E-25
  -9.300000        9.2396162E-25
  -9.250000        7.6877690E-25
  -9.200000        3.5475474E-25
  -9.150000       -7.7509676E-25
  -9.100000       -3.8562921E-24
  -9.050000       -1.1551842E-23
  -9.000000       -2.7663159E-23
  -8.950000       -5.3011358E-23
  -8.900000       -7.3764957E-23
  -8.850000       -4.3393790E-23
  -8.800000        1.2374686E-22
  -8.750000        5.0105335E-22
  -8.700000        9.7702470E-22
  -8.650000        9.4558487E-22
  -8.600000       -9.7439917E-22
  -8.550000       -6.6966794E-21
  -8.500000       -1.7106106E-20
  -8.450000       -2.8556863E-20
  -8.400000       -2.8106079E-20
  -8.350000        9.0509707E-21
  -8.300000        1.1295358E-19
  -8.250000        2.9456504E-19
  -8.200000        5.0051587E-19
  -8.150000        5.6012489E-19
  -8.100000        1.6527570E-19
  -8.050000       -1.0493846E-18
  -8.000000       -3.2575001E-18
  -7.950000       -6.0136514E-18
  -7.900000       -7.7787320E-18
  -7.850000       -5.7309133E-18
  -7.800000        3.6370234E-18
  -7.750000        2.2669887E-17
  -7.700000        4.9419763E-17
  -7.650000        7.4114741E-17
  -7.600000        7.7318028E-17
  -7.550000        3.2798979E-17
  -7.500000       -8.2125006E-17
  -7.450000       -2.6838520E-16
  -7.400000       -4.8346899E-16
  -7.350000       -6.2671936E-16
  -7.300000       -5.4678020E-16
  -7.250000       -8.5484266E-17
  -7.200000        8.3771135E-16
  -7.150000        2.1171358E-15
  -7.100000        3.3707968E-15
  -7.050000        3.9322221E-15
  -7.000000        2.9874293E-15
  -6.950000       -1.1520261E-16
  -6.900000       -5.4281192E-15
  -6.850000       -1.1982548E-14
  -6.800000       -1.7602420E-14
  -6.750000       -1.9186528E-14
  -6.700000       -1.3589102E-14
  -6.650000        9.9523375E-16
  -6.600000        2.3530955E-14
  -6.550000        4.9163981E-14
  -6.500000        6.9458707E-14
  -6.450000        7.4277451E-14
  -6.400000        5.5136444E-14
  -6.350000        9.1079115E-15
  -6.300000       -5.8274857E-14
  -6.250000       -1.3272306E-13
  -6.200000       -1.9438163E-13
  -6.150000       -2.2388233E-13
  -6.100000       -2.0891261E-13
  -6.050000       -1.4788774E-13
  -6.000000       -4.7867113E-14
  -5.950000        8.3499302E-14
  -5.900000        2.4801672E-13
  -5.850000        4.6106294E-13
  -5.800000        7.4084369E-13
  -5.750000        1.0782581E-12
  -5.700000        1.3933910E-12
  -5.650000        1.4988476E-12
  -5.600000        1.1018233E-12
  -5.550000       -1.2254831E-13
  -5.500000       -2.3719741E-12
  -5.450000       -5.4957202E-12
  -5.400000       -8.7860127E-12
  -5.350000       -1.0901045E-11
  -5.300000       -1.0049085E-11
  -5.250000       -4.5150984E-12
  -5.200000        6.5053457E-12
  -5.150000        2.1967100E-11
  -5.100000        3.8299103E-11
  -5.050000        4.9444313E-11
  -5.000000        4.7994973E-11
  -4.950000        2.7519986E-11
  -4.900000       -1.4286496E-11
  -4.850000       -7.2542417E-11
  -4.800000       -1.3351331E-10
  -4.750000       -1.7569768E-10
  -4.700000       -1.7450669E-10
  -4.650000       -1.1029962E-10
  -4.600000        2.1919100E-11
  -4.550000        2.0422568E-10
  -4.500000        3.9273826E-10
  -4.450000        5.2313615E-10
  -4.400000        5.2606347E-10
  -4.350000        3.5045414E-10
  -4.300000       -1.0960084E-11
  -4.250000       -5.0266580E-10
  -4.200000       -1.0033259E-09
  -4.150000       -1.3454815E-09
  -4.100000       -1.3587044E-09
  -4.050000       -9.2846170E-10
  -4.000000       -5.4598347E-11
  -3.950000        1.1117719E-09
  -3.900000        2.2730653E-09
  -3.850000        3.0429621E-09
  -3.800000        3.0526204E-09
  -3.750000        2.0821278E-09
  -3.700000        1.7808009E-10
  -3.650000       -2.2880782E-09
  -3.600000       -4.6579443E-09
  -3.550000       -6.1332370E-09
  -3.500000       -6.0097860E-09
  -3.450000       -3.9394865E-09
  -3.400000       -1.3612700E-10
  -3.350000        4.5606301E-09
  -3.300000        8.8202370E-09
  -3.250000        1.1156390E-08
  -3.200000        1.0393387E-08
  -3.150000        6.1324426E-09
  -3.100000       -9.4376851E-10
  -3.050000       -9.0703161E-09
  -3.000000       -1.5770302E-08
  -2.950000       -1.8548342E-08
  -2.900000       -1.5735580E-08
  -2.850000       -7.2245614E-09
  -2.800000        5.1845590E-09
  -2.750000        1.8026762E-08
  -2.700000        2.7038686E-08
  -2.650000        2.8471737E-08
  -2.600000        2.0481851E-08
  -2.550000        4.1252033E-09
  -2.500000       -1.6465071E-08
  -2.450000       -3.4940818E-08
  -2.400000       -4.4535831E-08
  -2.350000       -4.0344666E-08
  -2.300000       -2.1373966E-08
  -2.250000        8.3968965E-09
  -2.200000        4.0502734E-08
  -2.150000        6.4141474E-08
  -2.100000        6.9534266E-08
  -2.050000        5.1535551E-08
  -2.000000        1.2268324E-08
  -1.950000       -3.8318625E-08
  -1.900000       -8.4540673E-08
  -1.850000       -1.0945261E-07
  -1.800000       -1.0056000E-07
  -1.750000       -5.4979132E-08
  -1.700000        1.7863183E-08
  -1.650000        9.7366900E-08
  -1.600000        1.5700259E-07
  -1.550000        1.7253618E-07
  -1.500000        1.3087127E-07
  -1.450000        3.6525822E-08
  -1.400000       -8.6918931E-08
  -1.350000       -2.0175193E-07
  -1.300000       -2.6680456E-07
  -1.250000       -2.5111265E-07
  -1.200000       -1.4632569E-07
  -1.150000        2.6640357E-08
  -1.100000        2.1994846E-07
  -1.050000        3.7083851E-07
  -1.000000        4.2070300E-07
 -0.9500000        3.3581702E-07
 -0.9000000        1.2287266E-07
 -0.8500000       -1.6682171E-07
 -0.8000000       -4.4768703E-07
 -0.7500000       -6.2349454E-07
 -0.7000000       -6.1826728E-07
 -0.6500000       -4.0508095E-07
 -0.6000000       -2.2686812E-08
 -0.5500000        4.2748758E-07
 -0.5000000        8.0586187E-07
 -0.4500000        9.7566237E-07
 -0.4000000        8.4895663E-07
 -0.3500000        4.2307346E-07
 -0.3000000       -2.0613018E-07
 -0.2500000       -8.6184326E-07
 -0.2000000       -1.3331617E-06
 -0.1500000       -1.4397177E-06
 -0.1000000       -1.0950957E-06
 -5.0000001E-02   -3.4792831E-07
  0.0000000E+00    6.1582489E-07
  5.0000001E-02    1.5152280E-06
  0.1000000        2.0532013E-06
  0.1500000        2.0106529E-06
  0.2000000        1.3270667E-06
  0.2500000        1.3960371E-07
  0.3000000       -1.2370319E-06
  0.3500000       -2.3904804E-06
  0.4000000       -2.9314565E-06
  0.4500000       -2.6209223E-06
  0.5000000       -1.4632877E-06
  0.5500000        2.6827450E-07
  0.6000000        2.0900368E-06
  0.6500000        3.4397060E-06
  0.7000000        3.8475027E-06
  0.7500000        3.0953126E-06
  0.8000000        1.3114084E-06
  0.8500000       -1.0363320E-06
  0.9000000       -3.2567659E-06
  0.9500000       -4.6348391E-06
   1.000000       -4.6579589E-06
   1.050000       -3.1991356E-06
   1.100000       -5.9376367E-07
   1.150000        2.4248600E-06
   1.200000        4.9239388E-06
   1.250000        6.0522434E-06
   1.300000        5.3210983E-06
   1.350000        2.7948447E-06
   1.400000       -8.7887997E-07
   1.450000       -4.6235109E-06
   1.500000       -7.2398029E-06
   1.550000       -7.7793429E-06
   1.600000       -5.8714600E-06
   1.650000       -1.8944711E-06
   1.700000        3.0774884E-06
   1.750000        7.5548310E-06
   1.800000        1.0070277E-05
   1.850000        9.6477816E-06
   1.900000        6.1556020E-06
   1.950000        4.2113345E-07
   2.000000       -5.9491385E-06
   2.050000       -1.1011778E-05
   2.100000       -1.3071695E-05
   2.150000       -1.1236487E-05
   2.200000       -5.7616662E-06
   2.250000        1.9389233E-06
   2.300000        9.6467056E-06
   2.350000        1.4971932E-05
   2.400000        1.6088128E-05
   2.450000        1.2343162E-05
   2.500000        4.5454358E-06
   2.550000       -5.1878797E-06
   2.600000       -1.4002997E-05
   2.650000       -1.9150193E-05
   2.700000       -1.8845873E-05
   2.750000       -1.2885526E-05
   2.800000       -2.7982321E-06
   2.850000        8.5347983E-06
   2.900000        1.7709841E-05
   2.950000        2.1842508E-05
   3.000000        1.9503252E-05
   3.050000        1.1241856E-05
   3.100000       -4.9154278E-07
   3.150000       -1.2039953E-05
   3.200000       -1.9661873E-05
   3.250000       -2.0746558E-05
   3.300000       -1.4734217E-05
   3.350000       -3.4226437E-06
   3.400000        9.4812885E-06
   3.450000        1.9471658E-05
   3.500000        2.2699989E-05
   3.550000        1.7327378E-05
   3.600000        4.3214745E-06
   3.650000       -1.2606953E-05
   3.700000       -2.7978147E-05
   3.750000       -3.6187870E-05
   3.800000       -3.3346281E-05
   3.850000       -1.8733926E-05
   3.900000        4.6268215E-06
   3.950000        3.0544852E-05
   4.000000        5.1294897E-05
   4.050000        5.9887199E-05
   4.100000        5.2311298E-05
   4.150000        2.9049039E-05
   4.200000       -4.6735904E-06
   4.250000       -4.0072333E-05
   4.300000       -6.7170411E-05
   4.350000       -7.7701399E-05
   4.400000       -6.7695444E-05
   4.450000       -3.8935104E-05
   4.500000        1.2371380E-06
   4.550000        4.1802617E-05
   4.600000        7.1165334E-05
   4.650000        8.0587117E-05
   4.700000        6.6925495E-05
   4.750000        3.3797594E-05
   4.800000       -9.2681776E-06
   4.850000       -4.9531285E-05
   4.900000       -7.4843600E-05
   4.950000       -7.7429744E-05
   5.000000       -5.6459961E-05
   5.050000       -1.8545983E-05
   5.100000        2.4106064E-05
   5.150000        5.7429177E-05
   5.200000        7.0038135E-05
   5.250000        5.7184392E-05
   5.300000        2.2826462E-05
   5.350000       -2.0967376E-05
   5.400000       -5.7276036E-05
   5.450000       -6.9396105E-05
   5.500000       -4.6253503E-05
   5.550000        1.3521773E-05
   5.600000        1.0023227E-04
   5.650000        1.9508462E-04
   5.700000        2.7512899E-04
   5.750000        3.1985913E-04
   5.800000        3.1757099E-04
   5.850000        2.6952950E-04
   5.900000        1.9054029E-04
   5.950000        1.0552755E-04
   6.000000        4.2904576E-05
   6.050000        2.6532853E-05
   6.100000        6.8587593E-05
   6.150000        1.6549646E-04
   6.200000        2.9830812E-04
   6.250000        4.3759128E-04
   6.300000        5.5162230E-04
   6.350000        6.1558833E-04
   6.400000        6.1914074E-04
   6.450000        5.7001709E-04
   6.500000        4.9253204E-04
   6.550000        4.2121153E-04
   6.600000        3.9128886E-04
   6.650000        4.2875882E-04
   6.700000        5.4289115E-04
   6.750000        7.2345295E-04
   6.800000        9.4354880E-04
   6.850000        1.1673485E-03
   6.900000        1.3605063E-03
   6.950000        1.5002430E-03
   7.000000        1.5821089E-03
   7.050000        1.6213966E-03
   7.100000        1.6487403E-03
   7.150000        1.7011800E-03
   7.200000        1.8113451E-03
   7.250000        1.9980096E-03
   7.300000        2.2608903E-03
   7.350000        2.5812949E-03
   7.400000        2.9284600E-03
   7.450000        3.2696663E-03
   7.500000        3.5810387E-03
   7.550000        3.8556787E-03
   7.600000        4.1065691E-03
   7.650000        4.3632858E-03
   7.700000        4.6634567E-03
   7.750000        5.0416030E-03
   7.800000        5.5188430E-03
   7.850000        6.0967691E-03
   7.900000        6.7575295E-03
   7.950000        7.4702501E-03
   8.000000        8.2018944E-03
   8.050000        8.9291818E-03
   8.100000        9.6477456E-03
   8.150000        1.0375465E-02
   8.200000        1.1148650E-02
   8.250000        1.2012018E-02
   8.300000        1.3005439E-02
   8.350000        1.4151597E-02
   8.400000        1.5448632E-02
   8.450000        1.6870413E-02
   8.500000        1.8374866E-02
   8.550000        1.9918133E-02
   8.600000        2.1470509E-02
   8.650000        2.3029217E-02
   8.700000        2.4623858E-02
   8.750000        2.6312428E-02
   8.800000        2.8168561E-02
   8.850000        3.0263433E-02
   8.900000        3.2647494E-02
   8.950000        3.5337489E-02
   9.000000        3.8312901E-02
   9.050000        4.1523144E-02
   9.100000        4.4903822E-02
   9.150000        4.8397455E-02
   9.200000        5.1972710E-02
   9.250000        5.5636514E-02
   9.300000        5.9435364E-02
   9.350000        6.3445419E-02
   9.400000        6.7754179E-02
   9.450000        7.2439238E-02
   9.500000        7.7550374E-02
   9.550000        8.3100341E-02
   9.600000        8.9067034E-02
   9.650000        9.5406316E-02
   9.700000        0.1020715    
   9.750000        0.1090335    
   9.800000        0.1162955    
   9.850000        0.1238974    
   9.900000        0.1319089    
   9.950000        0.1404142    
