  -10.00000        1.0005574E-31
  -9.950000        3.0016723E-31
  -9.900000        5.0027873E-31
  -9.850000        6.9376609E-31
  -9.800000        8.9548511E-31
  -9.750000        9.1235712E-31
  -9.700000        6.7535310E-31
  -9.650000        3.5833499E-31
  -9.600000        1.3785318E-31
  -9.550000        1.3742511E-29
  -9.500000        2.7568580E-28
  -9.450000        3.0245853E-27
  -9.400000        2.3349465E-26
  -9.350000        1.3881747E-25
  -9.300000        6.6484241E-25
  -9.250000        2.6386983E-24
  -9.200000        8.8529726E-24
  -9.150000        2.5468578E-23
  -9.100000        6.3436849E-23
  -9.050000        1.3754394E-22
  -9.000000        2.5976281E-22
  -8.950000        4.2475896E-22
  -8.900000        5.9046938E-22
  -8.850000        6.6355440E-22
  -8.800000        5.0004260E-22
  -8.750000       -8.3586761E-23
  -8.700000       -1.3176968E-21
  -8.650000       -3.5241267E-21
  -8.600000       -7.1001953E-21
  -8.550000       -1.2089642E-20
  -8.500000       -1.6754327E-20
  -8.450000       -1.4819847E-20
  -8.400000        7.5069549E-21
  -8.350000        7.0782084E-20
  -8.300000        1.9073013E-19
  -8.250000        3.4887260E-19
  -8.200000        4.4731761E-19
  -8.150000        2.7113153E-19
  -8.100000       -4.8832101E-19
  -8.050000       -2.0761317E-18
  -8.000000       -4.3349500E-18
  -7.950000       -6.2427772E-18
  -7.900000       -5.5792629E-18
  -7.850000        8.1143745E-19
  -7.800000        1.5614685E-17
  -7.750000        3.8236156E-17
  -7.700000        6.1158240E-17
  -7.650000        6.7336591E-17
  -7.600000        3.1788528E-17
  -7.550000       -6.9217084E-17
  -7.500000       -2.3992677E-16
  -7.450000       -4.4132576E-16
  -7.400000       -5.7257574E-16
  -7.350000       -4.7516335E-16
  -7.300000        2.1494285E-17
  -7.250000        1.0040687E-15
  -7.200000        2.3440220E-15
  -7.150000        3.5808076E-15
  -7.100000        3.9021880E-15
  -7.050000        2.3138090E-15
  -7.000000       -1.9471369E-15
  -6.950000       -8.7967641E-15
  -6.900000       -1.6676330E-14
  -6.850000       -2.2246346E-14
  -6.800000       -2.0805479E-14
  -6.750000       -7.7331262E-15
  -6.700000        1.9078758E-14
  -6.650000        5.6376924E-14
  -6.600000        9.3447304E-14
  -6.550000        1.1231080E-13
  -6.500000        9.1602487E-14
  -6.450000        1.4578142E-14
  -6.400000       -1.2003926E-13
  -6.350000       -2.8779586E-13
  -6.300000       -4.3399214E-13
  -6.250000       -4.8038277E-13
  -6.200000       -3.4647524E-13
  -6.150000        1.5980554E-14
  -6.100000        5.8346795E-13
  -6.050000        1.2309549E-12
  -6.000000        1.7302478E-12
  -5.950000        1.7919787E-12
  -5.900000        1.1557139E-12
  -5.850000       -2.8583906E-13
  -5.800000       -2.3641080E-12
  -5.750000       -4.5657783E-12
  -5.700000       -6.0726602E-12
  -5.650000       -5.9457985E-12
  -5.600000       -3.4460700E-12
  -5.550000        1.5762708E-12
  -5.500000        8.3494791E-12
  -5.450000        1.5065192E-11
  -5.400000        1.9122601E-11
  -5.350000        1.7791933E-11
  -5.300000        9.2158269E-12
  -5.250000       -6.5011317E-12
  -5.200000       -2.6503289E-11
  -5.150000       -4.5125709E-11
  -5.100000       -5.4887192E-11
  -5.050000       -4.8575442E-11
  -5.000000       -2.2060234E-11
  -4.950000        2.2950275E-11
  -4.900000        7.7274936E-11
  -4.850000        1.2478893E-10
  -4.800000        1.4573147E-10
  -4.750000        1.2258831E-10
  -4.700000        4.7307852E-11
  -4.650000       -7.2332224E-11
  -4.600000       -2.0984986E-10
  -4.550000       -3.2295314E-10
  -4.500000       -3.6315151E-10
  -4.450000       -2.9089905E-10
  -4.400000       -9.2678573E-11
  -4.350000        2.0545589E-10
  -4.300000        5.3387567E-10
  -4.250000        7.8942641E-10
  -4.200000        8.6046570E-10
  -4.150000        6.6280853E-10
  -4.100000        1.7739286E-10
  -4.050000       -5.2291776E-10
  -4.000000       -1.2699564E-09
  -3.950000       -1.8284234E-09
  -3.900000       -1.9551967E-09
  -3.850000       -1.4785548E-09
  -3.800000       -3.7611919E-10
  -3.750000        1.1751128E-09
  -3.700000        2.8010807E-09
  -3.650000        3.9987031E-09
  -3.600000        4.2645829E-09
  -3.550000        3.2578189E-09
  -3.500000        9.5235297E-10
  -3.450000       -2.2733699E-09
  -3.400000       -5.6539489E-09
  -3.350000       -8.1821439E-09
  -3.300000       -8.8654772E-09
  -3.250000       -7.0387758E-09
  -3.200000       -2.6467273E-09
  -3.150000        3.5988896E-09
  -3.100000        1.0263669E-08
  -3.050000        1.5465996E-08
  -3.000000        1.7346830E-08
  -2.950000        1.4629840E-08
  -2.900000        7.1198860E-09
  -2.850000       -4.0223287E-09
  -2.800000       -1.6353706E-08
  -2.750000       -2.6612325E-08
  -2.700000       -3.1504012E-08
  -2.650000       -2.8637908E-08
  -2.600000       -1.7364636E-08
  -2.550000        7.4003864E-10
  -2.500000        2.1940139E-08
  -2.450000        4.1019174E-08
  -2.400000        5.2475563E-08
  -2.350000        5.1976677E-08
  -2.300000        3.7707920E-08
  -2.250000        1.1235398E-08
  -2.200000       -2.2414962E-08
  -2.150000       -5.5584096E-08
  -2.100000       -7.9609059E-08
  -2.050000       -8.6929667E-08
  -2.000000       -7.3187749E-08
  -1.950000       -3.8782840E-08
  -1.900000        1.0573907E-08
  -1.850000        6.4568006E-08
  -1.800000        1.1023265E-07
  -1.750000        1.3482111E-07
  -1.700000        1.2902068E-07
  -1.650000        8.9775078E-08
  -1.600000        2.1978844E-08
  -1.550000       -6.1531708E-08
  -1.500000       -1.4195068E-07
  -1.450000       -1.9827488E-07
  -1.400000       -2.1225526E-07
  -1.350000       -1.7350963E-07
  -1.300000       -8.3545302E-08
  -1.250000        4.2536406E-08
  -1.200000        1.7754481E-07
  -1.150000        2.8716346E-07
  -1.100000        3.3776584E-07
  -1.050000        3.0557780E-07
  -1.000000        1.8498085E-07
 -0.9500000       -6.5049974E-09
 -0.9000000       -2.2863978E-07
 -0.8500000       -4.2530101E-07
 -0.8000000       -5.3714928E-07
 -0.7500000       -5.1772417E-07
 -0.7000000       -3.4905833E-07
 -0.6500000       -5.2201781E-08
 -0.6000000        3.1142883E-07
 -0.5500000        6.5011108E-07
 -0.5000000        8.6260354E-07
 -0.4500000        8.6565370E-07
 -0.4000000        6.2143027E-07
 -0.3500000        1.5676935E-07
 -0.3000000       -4.3299616E-07
 -0.2500000       -9.9962153E-07
 -0.2000000       -1.3758900E-06
 -0.1500000       -1.4211578E-06
 -0.1000000       -1.0670489E-06
 -5.0000001E-02   -3.4974482E-07
  0.0000000E+00    5.8306063E-07
  5.0000001E-02    1.4969623E-06
  0.1000000        2.1253957E-06
  0.1500000        2.2426607E-06
  0.2000000        1.7367025E-06
  0.2500000        6.5989758E-07
  0.3000000       -7.6086826E-07
  0.3500000       -2.1643295E-06
  0.4000000       -3.1410909E-06
  0.4500000       -3.3473591E-06
  0.5000000       -2.6163025E-06
  0.5500000       -1.0332622E-06
  0.6000000        1.0532592E-06
  0.6500000        3.0977374E-06
  0.7000000        4.4924031E-06
  0.7500000        4.7400672E-06
  0.8000000        3.6183146E-06
  0.8500000        1.2841526E-06
  0.9000000       -1.7211174E-06
  0.9500000       -4.5824413E-06
   1.000000       -6.4196693E-06
   1.050000       -6.5446507E-06
   1.100000       -4.6953355E-06
   1.150000       -1.1725350E-06
   1.200000        3.1755267E-06
   1.250000        7.1367440E-06
   1.300000        9.4534926E-06
   1.350000        9.1970514E-06
   1.400000        6.0918837E-06
   1.450000        6.8507609E-07
   1.500000       -5.7101593E-06
   1.550000       -1.1308504E-05
   1.600000       -1.4325320E-05
   1.650000       -1.3508336E-05
   1.700000       -8.5764113E-06
   1.750000       -4.2354699E-07
   1.800000        8.9998684E-06
   1.850000        1.7130345E-05
   1.900000        2.1464859E-05
   1.950000        2.0292280E-05
   2.000000        1.3275147E-05
   2.050000        1.6969350E-06
   2.100000       -1.1730759E-05
   2.150000       -2.3488999E-05
   2.200000       -3.0163063E-05
   2.250000       -2.9411151E-05
   2.300000       -2.0719341E-05
   2.350000       -5.7095594E-06
   2.400000        1.2124853E-05
   2.450000        2.8229053E-05
   2.500000        3.8158236E-05
   2.550000        3.8810289E-05
   2.600000        2.9378672E-05
   2.650000        1.1737643E-05
   2.700000       -9.8895207E-06
   2.750000       -2.9938134E-05
   2.800000       -4.2951204E-05
   2.850000       -4.5094650E-05
   2.900000       -3.5317862E-05
   2.950000       -1.5808757E-05
   3.000000        8.4330159E-06
   3.050000        3.0843872E-05
   3.100000        4.5066288E-05
   3.150000        4.6771645E-05
   3.200000        3.5017107E-05
   3.250000        1.2713335E-05
   3.300000       -1.3994580E-05
   3.350000       -3.7330316E-05
   3.400000       -5.0076014E-05
   3.450000       -4.7748610E-05
   3.500000       -3.0120247E-05
   3.550000       -1.5836371E-06
   3.600000        2.9833649E-05
   3.650000        5.4615666E-05
   3.700000        6.4513843E-05
   3.750000        5.5134838E-05
   3.800000        2.7572394E-05
   3.850000       -1.1479529E-05
   3.900000       -5.1283234E-05
   3.950000       -7.9944548E-05
   4.000000       -8.7867928E-05
   4.050000       -7.0790949E-05
   4.100000       -3.1465035E-05
   4.150000        2.0611171E-05
   4.200000        7.1459959E-05
   4.250000        1.0635941E-04
   4.300000        1.1404516E-04
   4.350000        9.0184636E-05
   4.400000        3.9076724E-05
   4.450000       -2.7008989E-05
   4.500000       -9.0786969E-05
   4.550000       -1.3447896E-04
   4.600000       -1.4470534E-04
   4.650000       -1.1639593E-04
   4.700000       -5.4600023E-05
   4.750000        2.6378484E-05
   4.800000        1.0637775E-04
   4.850000        1.6447315E-04
   4.900000        1.8446184E-04
   4.950000        1.5929570E-04
   5.000000        9.3267881E-05
   5.050000        1.3191426E-06
   5.100000       -9.4439587E-05
   5.150000       -1.7017583E-04
   5.200000       -2.0641954E-04
   5.250000       -1.9324695E-04
   5.300000       -1.3320490E-04
   5.350000       -4.1137770E-05
   5.400000        5.9171671E-05
   5.450000        1.4082523E-04
   5.500000        1.8070106E-04
   5.550000        1.6565846E-04
   5.600000        9.6370692E-05
   5.650000       -1.2375649E-05
   5.700000       -1.3519412E-04
   5.750000       -2.4266826E-04
   5.800000       -3.0930535E-04
   5.850000       -3.2068556E-04
   5.900000       -2.7769819E-04
   5.950000       -1.9647530E-04
   6.000000       -1.0383957E-04
   6.050000       -2.9447350E-05
   6.100000        3.0888937E-06
   6.150000       -1.6642771E-05
   6.200000       -8.2759616E-05
   6.250000       -1.7519222E-04
   6.300000       -2.6647031E-04
   6.350000       -3.3106530E-04
   6.400000       -3.5420127E-04
   6.450000       -3.3709206E-04
   6.500000       -2.9667831E-04
   6.550000       -2.5979595E-04
   6.600000       -2.5369166E-04
   6.650000       -2.9619000E-04
   6.700000       -3.8906856E-04
   6.750000       -5.1715242E-04
   6.800000       -6.5361976E-04
   6.850000       -7.6971523E-04
   6.900000       -8.4535609E-04
   6.950000       -8.7667600E-04
   7.000000       -8.7759743E-04
   7.050000       -8.7474211E-04
   7.100000       -8.9755049E-04
   7.150000       -9.6739782E-04
   7.200000       -1.0899842E-03
   7.250000       -1.2540638E-03
   7.300000       -1.4370768E-03
   7.350000       -1.6154210E-03
   7.400000       -1.7750836E-03
   7.450000       -1.9180395E-03
   7.500000       -2.0614311E-03
   7.550000       -2.2295373E-03
   7.600000       -2.4417329E-03
   7.650000       -2.7016995E-03
   7.700000       -2.9930884E-03
   7.750000       -3.2844977E-03
   7.800000       -3.5428123E-03
   7.850000       -3.7501287E-03
   7.900000       -3.9172536E-03
   7.950000       -4.0873033E-03
   8.000000       -4.3262122E-03
   8.050000       -4.7019711E-03
   8.100000       -5.2592820E-03
   8.150000       -5.9990296E-03
   8.200000       -6.8711839E-03
   8.250000       -7.7855578E-03
   8.300000       -8.6384593E-03
   8.350000       -9.3471138E-03
   8.400000       -9.8801507E-03
   8.450000       -1.0272987E-02
   8.500000       -1.0621692E-02
   8.550000       -1.1056339E-02
   8.600000       -1.1702171E-02
   8.650000       -1.2641478E-02
   8.700000       -1.3889140E-02
   8.750000       -1.5390063E-02
   8.800000       -1.7039111E-02
   8.850000       -1.8716272E-02
   8.900000       -2.0324849E-02
   8.950000       -2.1819860E-02
   9.000000       -2.3218155E-02
   9.050000       -2.4588682E-02
   9.100000       -2.6028527E-02
   9.150000       -2.7634727E-02
   9.200000       -2.9481869E-02
   9.250000       -3.1611685E-02
   9.300000       -3.4034837E-02
   9.350000       -3.6739990E-02
   9.400000       -3.9703142E-02
   9.450000       -4.2892016E-02
   9.500000       -4.6264790E-02
   9.550000       -4.9767416E-02
   9.600000       -5.3336252E-02
   9.650000       -5.6911025E-02
   9.700000       -6.0457695E-02
   9.750000       -6.3993894E-02
   9.800000       -6.7605101E-02
   9.850000       -7.1439937E-02
   9.900000       -7.5679258E-02
   9.950000       -8.0484301E-02
