  -73.44685       -4.3807998E-26
  -73.39685       -1.2775363E-25
  -73.34686       -2.0190671E-25
  -73.29685       -2.6270318E-25
  -73.24685       -3.0829027E-25
  -73.19685       -3.3659682E-25
  -73.14685       -3.4447539E-25
  -73.09686       -3.2891802E-25
  -73.04685       -2.8917533E-25
  -72.99685       -2.2763383E-25
  -72.94685       -1.4852520E-25
  -72.89685       -5.5706799E-26
  -72.84686        4.8338540E-26
  -72.79685        1.6140503E-25
  -72.74685        2.7964168E-25
  -72.69685        3.9692246E-25
  -72.64685        5.0631154E-25
  -72.59686        6.0230206E-25
  -72.54685        6.8173419E-25
  -72.49685        7.4265131E-25
  -72.44685        7.8244224E-25
  -72.39685        7.9731611E-25
  -72.34686        7.8376550E-25
  -72.29685        7.4061772E-25
  -72.24685        6.6966402E-25
  -72.19685        5.7427176E-25
  -72.14685        4.5740946E-25
  -72.09686        3.2105034E-25
  -72.04685        1.6746996E-25
  -71.99685        9.9282160E-28
  -71.94685       -1.7172654E-25
  -71.89685       -3.4331569E-25
  -71.84686       -5.0771684E-25
  -71.79685       -6.6076838E-25
  -71.74685       -7.9896843E-25
  -71.69685       -9.1789084E-25
  -71.64685       -1.0120451E-24
  -71.59686       -1.0764550E-24
  -71.54685       -1.1084549E-24
  -71.49685       -1.1079772E-24
  -71.44685       -1.0761235E-24
  -71.39685       -1.0135268E-24
  -71.34686       -9.2016325E-25
  -71.29685       -7.9674882E-25
  -71.24685       -6.4621927E-25
  -71.19685       -4.7370871E-25
  -71.14685       -2.8497847E-25
  -71.09686       -8.4792656E-26
  -71.04685        1.2325192E-25
  -70.99685        3.3545975E-25
  -70.94685        5.4681481E-25
  -70.89685        7.5121262E-25
  -70.84686        9.4304485E-25
  -70.79685        1.1186479E-24
  -70.74685        1.2762850E-24
  -70.69685        1.4148165E-24
  -70.64685        1.5325195E-24
  -70.59686        1.6272915E-24
  -70.54685        1.6980059E-24
  -70.49685        1.7455940E-24
  -70.44685        1.7727036E-24
  -70.39685        1.7822517E-24
  -70.34686        1.7762753E-24
  -70.29685        1.7561377E-24
  -70.24685        1.7237238E-24
  -70.19685        1.6822607E-24
  -70.14685        1.6358118E-24
  -70.09686        1.5878806E-24
  -70.04685        1.5404611E-24
  -69.99685        1.4943903E-24
  -69.94685        1.4505103E-24
  -69.89685        1.4103584E-24
  -69.84686        1.3756281E-24
  -69.79685        1.3469605E-24
  -69.74685        1.3233089E-24
  -69.69685        1.3025244E-24
  -69.64685        1.2825683E-24
  -69.59686        1.2621477E-24
  -69.54685        1.2402255E-24
  -69.49685        1.2150496E-24
  -69.44685        1.1838339E-24
  -69.39685        1.1435236E-24
  -69.34686        1.0919472E-24
  -69.29685        1.0282632E-24
  -69.24685        9.5235864E-25
  -69.19685        8.6393059E-25
  -69.14685        7.6228147E-25
  -69.09686        6.4705497E-25
  -69.04685        5.1915119E-25
  -68.99685        3.8085660E-25
  -68.94685        2.3505656E-25
  -68.89685        8.4335924E-26
  -68.84686       -6.9139184E-26
  -68.79685       -2.2292277E-25
  -68.74685       -3.7360738E-25
  -68.69685       -5.1697812E-25
  -68.64685       -6.4893769E-25
  -68.59686       -7.6633695E-25
  -68.54685       -8.6695961E-25
  -68.49685       -9.4880847E-25
  -68.44685       -1.0095704E-24
  -68.39685       -1.0469276E-24
  -68.34686       -1.0594616E-24
  -68.29685       -1.0472486E-24
  -68.24685       -1.0115525E-24
  -68.19685       -9.5395007E-25
  -68.14685       -8.7580551E-25
  -68.09686       -7.7860734E-25
  -68.04685       -6.6475110E-25
  -67.99685       -5.3785518E-25
  -67.94685       -4.0217465E-25
  -67.89685       -2.6163016E-25
  -67.84686       -1.1937022E-25
  -67.79685        2.1772673E-26
  -67.74685        1.5852003E-25
  -67.69685        2.8699411E-25
  -67.64685        4.0344403E-25
  -67.59686        5.0518746E-25
  -67.54685        5.9085302E-25
  -67.49685        6.5972901E-25
  -67.44685        7.1095172E-25
  -67.39685        7.4342755E-25
  -67.34686        7.5659906E-25
  -67.29685        7.5124821E-25
  -67.24685        7.2945943E-25
  -67.19685        6.9371684E-25
  -67.14685        6.4600214E-25
  -67.09686        5.8776148E-25
  -67.04685        5.2069612E-25
  -66.99685        4.4745852E-25
  -66.94685        3.7142066E-25
  -66.89685        2.9565008E-25
  -66.84686        2.2207238E-25
  -66.79685        1.5162636E-25
  -66.74685        8.5204232E-26
  -66.69685        2.4354077E-26
  -66.64685       -2.9029459E-26
  -66.59686       -7.3740086E-26
  -66.54685       -1.0995859E-25
  -66.49685       -1.3887583E-25
  -66.44685       -1.6160102E-25
  -66.39685       -1.7845672E-25
  -66.34686       -1.8935982E-25
  -66.29685       -1.9485341E-25
  -66.24685       -1.9666326E-25
  -66.19685       -1.9712800E-25
  -66.14685       -1.9801027E-25
  -66.09686       -1.9984700E-25
  -66.04685       -2.0245164E-25
  -65.99685       -2.0599847E-25
  -65.94685       -2.1151962E-25
  -65.89685       -2.2025928E-25
  -65.84686       -2.3252274E-25
  -65.79685       -2.4720463E-25
  -65.74685       -2.6250227E-25
  -65.69685       -2.7711084E-25
  -65.64685       -2.9070491E-25
  -65.59686       -3.0325066E-25
  -65.54685       -3.1390698E-25
  -65.49685       -3.2070346E-25
  -65.44685       -3.2139078E-25
  -65.39685       -3.1464817E-25
  -65.34686       -3.0045703E-25
  -65.29685       -2.7930784E-25
  -65.24685       -2.5109943E-25
  -65.19685       -2.1490770E-25
  -65.14685       -1.6990023E-25
  -65.09686       -1.1647859E-25
  -65.04685       -5.6489393E-26
  -64.99685        7.7149695E-27
  -64.94685        7.4410630E-26
  -64.89685        1.4269195E-25
  -64.84686        2.1156177E-25
  -64.79685        2.7891531E-25
  -64.74685        3.4152690E-25
  -64.69685        3.9612392E-25
  -64.64685        4.4051788E-25
  -64.59686        4.7370195E-25
  -64.54685        4.9489859E-25
  -64.49685        5.0260133E-25
  -64.44685        4.9465903E-25
  -64.39685        4.6935932E-25
  -64.34686        4.2642828E-25
  -64.29685        3.6694531E-25
  -64.24685        2.9227839E-25
  -64.19685        2.0314201E-25
  -64.14685        9.9738347E-26
  -64.09686       -1.7194736E-26
  -64.04685       -1.4553938E-25
  -63.99685       -2.8206491E-25
  -63.94685       -4.2357093E-25
  -63.89685       -5.6778062E-25
  -63.84685       -7.1313085E-25
  -63.79685       -8.5775223E-25
  -63.74685       -9.9877058E-25
  -63.69685       -1.1327154E-24
  -63.64685       -1.2566768E-24
  -63.59685       -1.3690743E-24
  -63.54685       -1.4693060E-24
  -63.49685       -1.5566915E-24
  -63.44685       -1.6298382E-24
  -63.39685       -1.6870956E-24
  -63.34685       -1.7276206E-24
  -63.29685       -1.7519441E-24
  -63.24685       -1.7614373E-24
  -63.19685       -1.7572165E-24
  -63.14685       -1.7395876E-24
  -63.09685       -1.7085648E-24
  -63.04685       -1.6648690E-24
  -62.99685       -1.6103324E-24
  -62.94685       -1.5472495E-24
  -62.89685       -1.4773178E-24
  -62.84685       -1.4012236E-24
  -62.79685       -1.3192591E-24
  -62.74685       -1.2322775E-24
  -62.69685       -1.1419677E-24
  -62.64685       -1.0501360E-24
  -62.59685       -9.5773690E-25
  -62.54685       -8.6464460E-25
  -62.49685       -7.7039900E-25
  -62.44685       -6.7514444E-25
  -62.39685       -5.7980325E-25
  -62.34685       -4.8533385E-25
  -62.29685       -3.9188357E-25
  -62.24685       -2.9875296E-25
  -62.19685       -2.0523827E-25
  -62.14685       -1.1150129E-25
  -62.09685       -1.8588453E-26
  -62.04685        7.2391097E-26
  -61.99685        1.6104836E-25
  -61.94685        2.4763120E-25
  -61.89685        3.3216285E-25
  -61.84685        4.1370908E-25
  -61.79685        4.9054931E-25
  -61.74685        5.6108156E-25
  -61.69685        6.2453127E-25
  -61.64685        6.8074318E-25
  -61.59685        7.2930166E-25
  -61.54685        7.6893083E-25
  -61.49685        7.9783627E-25
  -61.44685        8.1466440E-25
  -61.39685        8.1911446E-25
  -61.34685        8.1159731E-25
  -61.29685        7.9233618E-25
  -61.24685        7.6088395E-25
  -61.19685        7.1659326E-25
  -61.14685        6.5956567E-25
  -61.09685        5.9109900E-25
  -61.04685        5.1315920E-25
  -60.99685        4.2741514E-25
  -60.94685        3.3482642E-25
  -60.89685        2.3618826E-25
  -60.84685        1.3302957E-25
  -60.79685        2.7882914E-26
  -60.74685       -7.6407434E-26
  -60.69685       -1.7766639E-25
  -60.64685       -2.7467885E-25
  -60.59685       -3.6652617E-25
  -60.54685       -4.5170003E-25
  -60.49685       -5.2796079E-25
  -60.44685       -5.9313327E-25
  -60.39685       -6.4604883E-25
  -60.34685       -6.8667896E-25
  -60.29685       -7.1534065E-25
  -60.24685       -7.3181620E-25
  -60.19685       -7.3531939E-25
  -60.14685       -7.2535430E-25
  -60.09685       -7.0257170E-25
  -60.04685       -6.6871083E-25
  -59.99685       -6.2565604E-25
  -59.94685       -5.7455106E-25
  -59.89685       -5.1585616E-25
  -59.84685       -4.5025395E-25
  -59.79685       -3.7941831E-25
  -59.74685       -3.0580255E-25
  -59.69685       -2.3161429E-25
  -59.64685       -1.5800343E-25
  -59.59685       -8.5276764E-26
  -59.54685       -1.3897230E-26
  -59.49685        5.4787333E-26
  -59.44685        1.1886433E-25
  -59.39685        1.7691256E-25
  -59.34685        2.2871116E-25
  -59.29685        2.7486766E-25
  -59.24685        3.1574505E-25
  -59.19685        3.5079602E-25
  -59.14685        3.7899047E-25
  -59.09685        3.9988851E-25
  -59.04685        4.1423190E-25
  -58.99685        4.2341695E-25
  -58.94685        4.2836661E-25
  -58.89685        4.2894341E-25
  -58.84685        4.2449113E-25
  -58.79685        4.1492240E-25
  -58.74685        4.0120615E-25
  -58.69685        3.8473387E-25
  -58.64685        3.6621169E-25
  -58.59685        3.4522666E-25
  -58.54685        3.2093470E-25
  -58.49685        2.9315997E-25
  -58.44685        2.6277654E-25
  -58.39685        2.3100165E-25
  -58.34685        1.9836186E-25
  -58.29685        1.6440770E-25
  -58.24685        1.2845096E-25
  -58.19685        9.0545917E-26
  -58.14685        5.1734460E-26
  -58.09685        1.3374137E-26
  -58.04685       -2.3730609E-26
  -57.99685       -5.9572526E-26
  -57.94685       -9.4419686E-26
  -57.89685       -1.2804856E-25
  -57.84685       -1.5934028E-25
  -57.79685       -1.8650637E-25
  -57.74685       -2.0785676E-25
  -57.69685       -2.2269405E-25
  -57.64685       -2.3157650E-25
  -57.59685       -2.3528972E-25
  -57.54685       -2.3301198E-25
  -57.49685       -2.2163158E-25
  -57.44685       -1.9788909E-25
  -57.39685       -1.6200252E-25
  -57.34685       -1.1846928E-25
  -57.29685       -7.1430455E-26
  -57.24685       -1.8547388E-26
  -57.19685        4.8435736E-26
  -57.14685        1.3402255E-25
  -57.09685        2.3001054E-25
  -57.04685        3.2071991E-25
  -56.99685        4.0125846E-25
  -56.94685        4.8791170E-25
  -56.89685        6.0186301E-25
  -56.84685        7.3837400E-25
  -56.79685        8.6039491E-25
  -56.74685        9.3671454E-25
  -56.69685        9.8790461E-25
  -56.64685        1.0759860E-24
  -56.59685        1.2290214E-24
  -56.54685        1.3836183E-24
  -56.49685        1.4369997E-24
  -56.44685        1.3782520E-24
  -56.39685        1.3401807E-24
  -56.34685        1.4639229E-24
  -56.29685        1.6970100E-24
  -56.24685        1.7907072E-24
  -56.19685        1.5797280E-24
  -56.14685        1.2520360E-24
  -56.09685        1.2165570E-24
  -56.04685        1.6036544E-24
  -55.99685        1.9739889E-24
  -55.94685        1.7306837E-24
  -55.89685        9.0928723E-25
  -55.84685        3.6028803E-25
  -55.79685        8.4328866E-25
  -55.74685        1.9248441E-24
  -55.69685        2.1694653E-24
  -55.64685        8.0846819E-25
  -55.59685       -9.5282308E-25
  -55.54685       -9.5217296E-25
  -55.49685        1.2320791E-24
  -55.44685        3.1256588E-24
  -55.39685        1.8675193E-24
  -55.34685       -1.9401375E-24
  -55.29685       -3.9880646E-24
  -55.24685       -1.0898207E-24
  -55.19685        4.0796525E-24
  -55.14685        4.9569120E-24
  -55.09685       -9.7412627E-25
  -55.04685       -7.5730276E-24
  -54.99685       -6.1211339E-24
  -54.94685        3.3523185E-24
  -54.89685        9.8057604E-24
  -54.84685        3.6063924E-24
  -54.79685       -9.7707996E-24
  -54.74685       -1.3611009E-23
  -54.69685       -5.5092709E-25
  -54.64685        1.4838000E-23
  -54.59685        1.1407883E-23
  -54.54685       -9.9773912E-24
  -54.49685       -2.2346891E-23
  -54.44685       -5.4939188E-24
  -54.39685        2.2348343E-23
  -54.34685        2.1393128E-23
  -54.29685       -1.5219746E-23
  -54.24685       -4.0360266E-23
  -54.19685       -8.6017606E-24
  -54.14685        5.0827611E-23
  -54.09685        5.1301389E-23
  -54.04685       -3.5854280E-23
  -53.99685       -1.0952438E-22
  -53.94685       -4.1682675E-23
  -53.89685        1.3084702E-22
  -53.84685        1.8601615E-22
  -53.79685       -2.3952881E-23
  -53.74685       -3.0703032E-22
  -53.69685       -2.6379309E-22
  -53.64685        2.0272309E-22
  -53.59685        5.9771014E-22
  -53.54685        2.9799469E-22
  -53.49685       -5.8339437E-22
  -53.44685       -1.0278545E-21
  -53.39685       -1.8980729E-22
  -53.34685        1.3021714E-21
  -53.29685        1.6043707E-21
  -53.24685       -2.3234445E-22
  -53.19685       -2.5342019E-21
  -53.14685       -2.2662887E-21
  -53.09685        1.2702887E-21
  -53.04685        4.5075083E-21
  -52.99685        2.8480911E-21
  -52.94685       -3.3849662E-21
  -52.89685       -7.4586399E-21
  -52.84685       -2.9731036E-21
  -52.79685        7.2717125E-21
  -52.74685        1.1599134E-20
  -52.69685        1.9525451E-21
  -52.64685       -1.3892452E-20
  -52.59685       -1.6998397E-20
  -52.54685        1.3912783E-21
  -52.49685        2.4526202E-20
  -52.44685        2.3435647E-20
  -52.39685       -8.9170805E-21
  -52.34685       -4.0767092E-20
  -52.29685       -3.0155270E-20
  -52.24685        2.3415611E-20
  -52.19685        6.4489728E-20
  -52.14685        3.5535065E-20
  -52.09685       -4.8905322E-20
  -52.04685       -9.7757762E-20
  -51.99685       -3.6641781E-20
  -51.94685        9.0980878E-20
  -51.89685        1.4265036E-19
  -51.84685        2.8619557E-20
  -51.79685       -1.5726727E-19
  -51.74685       -2.0102177E-19
  -51.69685       -3.8905850E-21
  -51.64685        2.5798122E-19
  -51.59685        2.7411455E-19
  -51.54685       -4.8982117E-20
  -51.49685       -4.0671695E-19
  -51.44685       -3.6201660E-19
  -51.39685        1.4687716E-19
  -51.34685        6.2151337E-19
  -51.29685        4.6283904E-19
  -51.24685       -3.1438545E-19
  -51.19685       -9.2633299E-19
  -51.14685       -5.7145643E-19
  -51.09685        5.8711936E-19
  -51.04685        1.3531413E-18
  -50.99685        6.7757569E-19
  -50.94685       -1.0165585E-18
  -50.89685       -1.9448447E-18
  -50.84685       -7.6273983E-19
  -50.79685        1.6771971E-18
  -50.74685        2.7593052E-18
  -50.69685        7.9538999E-19
  -50.64685       -2.6773818E-18
  -50.59685       -3.8749280E-18
  -50.54685       -7.2276095E-19
  -50.49685        4.1756499E-18
  -50.44685        5.3979056E-18
  -50.39685        4.5718200E-19
  -50.34685       -6.4052247E-18
  -50.29685       -7.4706089E-18
  -50.24685        1.4736179E-19
  -50.19685        9.7104784E-18
  -50.14685        1.0279949E-17
  -50.09685       -1.3339353E-18
  -50.04685       -1.4598702E-17
  -49.99685       -1.4061453E-17
  -49.94685        3.5057064E-18
  -49.89685        2.1811267E-17
  -49.84685        1.9091957E-17
  -49.79685       -7.3249358E-18
  -49.74685       -3.2416546E-17
  -49.69685       -2.5658913E-17
  -49.64685        1.3862794E-17
  -49.59685        4.7924598E-17
  -49.54685        3.3988365E-17
  -49.49685       -2.4817822E-17
  -49.44685       -7.0419811E-17
  -49.39685       -4.4106352E-17
  -49.34685        4.2822498E-17
  -49.29685        1.0270045E-16
  -49.24685        5.5600871E-17
  -49.19685       -7.1858265E-17
  -49.14685       -1.4840666E-16
  -49.09685       -6.7241446E-17
  -49.04685        1.1779580E-16
  -48.99685        2.1209946E-16
  -48.94685        7.6397137E-17
  -48.89685       -1.8908057E-16
  -48.84685       -2.9924192E-16
  -48.79685       -7.8180453E-17
  -48.74685        2.9757498E-16
  -48.69685        4.1600798E-16
  -48.64685        6.4227729E-17
  -48.59685       -4.5956133E-16
  -48.54685       -5.6881698E-16
  -48.49685       -2.1017433E-17
  -48.44685        6.9687238E-16
  -48.39685        7.6343974E-16
  -48.34685       -7.2405448E-17
  -48.29685       -1.0381202E-15
  -48.24685       -1.0035136E-15
  -48.19685        2.4736848E-16
  -48.14685        1.5198360E-15
  -48.09685        1.2881572E-15
  -48.04685       -5.4931500E-16
  -47.99685       -2.1873510E-15
  -47.94685       -1.6083719E-15
  -47.89685        1.0424375E-15
  -47.84685        3.0951264E-15
  -47.79685        1.9419024E-15
  -47.74685       -1.8151298E-15
  -47.69685       -4.3060356E-15
  -47.64685       -2.2460154E-15
  -47.59685        2.9863709E-15
  -47.54685        5.8892994E-15
  -47.49685        2.4481008E-15
  -47.44685       -4.7125406E-15
  -47.39685       -7.9162971E-15
  -47.34685       -2.4337412E-15
  -47.29685        7.1941702E-15
  -47.24685        1.0453357E-14
  -47.19685        2.0318355E-15
  -47.14685       -1.0682248E-14
  -47.09685       -1.3550931E-14
  -47.04685       -9.9701178E-16
  -46.99685        1.5482786E-14
  -46.94685        1.7227703E-14
  -46.89685       -1.0114211E-15
  -46.84685       -2.1959461E-14
  -46.79685       -2.1449166E-14
  -46.74685        4.4538005E-15
  -46.69685        3.0533718E-14
  -46.64685        2.6100746E-14
  -46.59685       -9.9362225E-15
  -46.54685       -4.1679950E-14
  -46.49685       -3.0953576E-14
  -46.44685        1.8238854E-14
  -46.39685        5.5915257E-14
  -46.34685        3.5623634E-14
  -46.29685       -3.0343400E-14
  -46.24685       -7.3779727E-14
  -46.19685       -3.9521324E-14
  -46.14685        4.7459676E-14
  -46.09685        9.5804244E-14
  -46.04685        4.1788276E-14
  -45.99685       -7.1053277E-14
  -45.94685       -1.2246833E-13
  -45.89685       -4.1225788E-14
  -45.84685        1.0286819E-13
  -45.79685        1.5414212E-13
  -45.74685        3.6212078E-14
  -45.69685       -1.4494536E-13
  -45.64685       -1.9101607E-13
  -45.59685       -2.4616316E-14
  -45.54685        1.9962875E-13
  -45.49685        2.3301687E-13
  -45.44685        3.7184539E-15
  -45.39685       -2.6954263E-13
  -45.34685       -2.7969323E-13
  -45.29685        2.9876248E-14
  -45.24685        3.5754681E-13
  -45.19685        3.3007603E-13
  -45.14685       -8.0327123E-14
  -45.09685       -4.6667509E-13
  -45.04685       -3.8252227E-13
  -44.99685        1.5264652E-13
  -44.94685        6.0005798E-13
  -44.89685        4.3454533E-13
  -44.84685       -2.5279499E-13
  -44.79685       -7.6086094E-13
  -44.74685       -4.8267927E-13
  -44.69685        3.8773642E-13
  -44.64685        9.5220327E-13
  -44.59685        5.2236747E-13
  -44.54685       -5.6543409E-13
  -44.49685       -1.1770154E-12
  -44.44685       -5.4780881E-13
  -44.39685        7.9486108E-13
  -44.34685        1.4378862E-12
  -44.29685        5.5179358E-13
  -44.24685       -1.0859884E-12
  -44.19685       -1.7368272E-12
  -44.14685       -5.2539418E-13
  -44.09685        1.4499307E-12
  -44.04685        2.0751350E-12
  -43.99685        4.5765041E-13
  -43.94685       -1.8991894E-12
  -43.89685       -2.4533893E-12
  -43.84685       -3.3539127E-13
  -43.79685        2.4477740E-12
  -43.74685        2.8713655E-12
  -43.69685        1.4303222E-13
  -43.64685       -3.1112860E-12
  -43.59685       -3.3279312E-12
  -43.54685        1.3747750E-13
  -43.49685        3.9066237E-12
  -43.44685        3.8204453E-12
  -43.39685       -5.2708516E-13
  -43.34685       -4.8517293E-12
  -43.29685       -4.3438426E-12
  -43.24685        1.0505566E-12
  -43.19685        5.9657934E-12
  -43.14685        4.8899977E-12
  -43.09685       -1.7373418E-12
  -43.04685       -7.2695665E-12
  -42.99685       -5.4472412E-12
  -42.94685        2.6224268E-12
  -42.89685        8.7860179E-12
  -42.84685        6.0006418E-12
  -42.79685       -3.7462741E-12
  -42.74685       -1.0540352E-11
  -42.69685       -6.5322825E-12
  -42.64685        5.1539307E-12
  -42.59685        1.2558577E-11
  -42.54685        7.0200434E-12
  -42.49685       -6.8949920E-12
  -42.44685       -1.4865808E-11
  -42.39685       -7.4351289E-12
  -42.34685        9.0250073E-12
  -42.29685        1.7485086E-11
  -42.24685        7.7386457E-12
  -42.19685       -1.1608824E-11
  -42.14685       -2.0438026E-11
  -42.09685       -7.8787948E-12
  -42.04685        1.4724909E-11
  -41.99685        2.3747795E-11
  -41.94685        7.7912347E-12
  -41.89685       -1.8466707E-11
  -41.84685       -2.7440833E-11
  -41.79685       -7.4014701E-12
  -41.74685        2.2938504E-11
  -41.69685        3.1542248E-11
  -41.64685        6.6241392E-12
  -41.59685       -2.8248502E-11
  -41.54685       -3.6063465E-11
  -41.49685       -5.3538181E-12
  -41.44685        3.4506759E-11
  -41.39685        4.0989268E-11
  -41.34685        3.4506083E-12
  -41.29685       -4.1831035E-11
  -41.24685       -4.6273541E-11
  -41.19685       -7.3281572E-13
  -41.14685        5.0350078E-11
  -41.09685        5.1838287E-11
  -41.04685       -3.0241601E-12
  -40.99685       -6.0203939E-11
  -40.94685       -5.7577089E-11
  -40.89685        8.0805336E-12
  -40.84685        7.1542404E-11
  -40.79685        6.3372932E-11
  -40.74685       -1.4693568E-11
  -40.69685       -8.4486806E-11
  -40.64685       -6.9093099E-11
  -40.59685        2.3069838E-11
  -40.54685        9.9038423E-11
  -40.49685        7.4486528E-11
  -40.44685       -3.3441305E-11
  -40.39685       -1.1510045E-10
  -40.34685       -7.9134699E-11
  -40.29685        4.6195027E-11
  -40.24685        1.3268381E-10
  -40.19685        8.2702512E-11
  -40.14685       -6.1637563E-11
  -40.09685       -1.5176217E-10
  -40.04685       -8.4952677E-11
  -39.99685        7.9774500E-11
  -39.94685        1.7182490E-10
  -39.89685        8.5083190E-11
  -39.84685       -1.0112240E-10
  -39.79685       -1.9268685E-10
  -39.74685       -8.2285324E-11
  -39.69685        1.2672313E-10
  -39.64685        2.1538420E-10
  -39.59685        7.7691353E-11
  -39.54685       -1.5524838E-10
  -39.49685       -2.3880498E-10
  -39.44685       -7.1378702E-11
  -39.39685        1.8452259E-10
  -39.34685        2.5862898E-10
  -39.29685        5.7923284E-11
  -39.24685       -2.1951206E-10
  -39.19685       -2.7807495E-10
  -39.14685       -3.8023411E-11
  -39.09685        2.6272581E-10
  -39.04685        3.0384756E-10
  -38.99685        2.3412517E-11
  -38.94685       -2.9795139E-10
  -38.89685       -3.1815700E-10
  -38.84685        3.1782265E-13
  -38.79685        3.3068681E-10
  -38.74685        3.1309005E-10
  -38.69685       -5.7143085E-11
  -38.64685       -4.0142664E-10
  -38.59685       -3.4301983E-10
  -38.54685        8.6268735E-11
  -38.49685        4.5640419E-10
  -38.44685        3.7932274E-10
  -38.39685       -7.2771976E-11
  -38.34685       -4.2422441E-10
  -38.29685       -2.9138036E-10
  -38.24685        1.9654996E-10
  -38.19685        5.1039184E-10
  -38.14685        2.7267757E-10
  -38.09685       -3.2595748E-10
  -38.04685       -7.0083600E-10
  -37.99685       -4.7642973E-10
  -37.94685        1.1216891E-10
  -37.89685        4.5838150E-10
  -37.84685        2.2908807E-10
  -37.79685       -2.6590771E-10
  -37.74685       -3.8916931E-10
  -37.69685        1.3850716E-10
  -37.64685        9.0609592E-10
  -37.59685        1.2030330E-09
  -37.54685        7.3868994E-10
  -37.49685       -6.4893556E-11
  -37.44685       -5.2402394E-10
  -37.39685       -4.1742240E-10
  -37.34685       -2.1240319E-10
  -37.29685       -5.4107441E-10
  -37.24685       -1.4726733E-09
  -37.19685       -2.3573041E-09
  -37.14685       -2.4229936E-09
  -37.09685       -1.5132866E-09
  -37.04685       -1.9964883E-10
  -36.99685        8.4036844E-10
  -36.94685        1.5137371E-09
  -36.89685        2.3347178E-09
  -36.84685        3.7534607E-09
  -36.79685        5.5053668E-09
  -36.74685        6.6832486E-09
  -36.69685        6.4795045E-09
  -36.64685        4.8449436E-09
  -36.59685        2.4019782E-09
  -36.54685       -2.6691446E-10
  -36.49685       -3.1872220E-09
  -36.44685       -6.8159416E-09
  -36.39685       -1.1317641E-08
  -36.34685       -1.6072590E-08
  -36.29685       -1.9953205E-08
  -36.24685       -2.2101025E-08
  -36.19685       -2.2423674E-08
  -36.14685       -2.1342032E-08
  -36.09685       -1.9109720E-08
  -36.04685       -1.5457083E-08
  -35.99685       -9.9370050E-09
  -35.94685       -2.5867177E-09
  -35.89685        5.8141092E-09
  -35.84685        1.4171877E-08
  -35.79685        2.1754373E-08
  -35.74685        2.8437686E-08
  -35.69685        3.4330537E-08
  -35.64685        3.9239076E-08
  -35.59685        4.2565595E-08
  -35.54685        4.3730967E-08
  -35.49685        4.2647152E-08
  -35.44685        3.9744954E-08
  -35.39685        3.5564380E-08
  -35.34685        3.0361495E-08
  -35.29685        2.4107830E-08
  -35.24685        1.6796172E-08
  -35.19685        8.6632328E-09
  -35.14685        1.0190312E-10
  -35.09685       -8.5802307E-09
  -35.04685       -1.7255591E-08
  -34.99685       -2.5846004E-08
  -34.94685       -3.4161708E-08
  -34.89685       -4.1897152E-08
  -34.84685       -4.8736702E-08
  -34.79685       -5.4394821E-08
  -34.74685       -5.8553059E-08
  -34.69685       -6.0844222E-08
  -34.64685       -6.0987382E-08
  -34.59685       -5.8942582E-08
  -34.54685       -5.4865769E-08
  -34.49685       -4.8873439E-08
  -34.44685       -4.0909178E-08
  -34.39685       -3.0943028E-08
  -34.34685       -1.9335600E-08
  -34.29685       -6.9270332E-09
  -34.24685        5.3480473E-09
  -34.19685        1.6980879E-08
  -34.14685        2.7996354E-08
  -34.09685        3.8518433E-08
  -34.04685        4.8272785E-08
  -33.99685        5.6599518E-08
  -33.94685        6.2980234E-08
  -33.89685        6.7483562E-08
  -33.84685        7.0604393E-08
  -33.79685        7.2656221E-08
  -33.74685        7.3397864E-08
  -33.69685        7.2325463E-08
  -33.64685        6.9310722E-08
  -33.59685        6.4868367E-08
  -33.54685        5.9745481E-08
  -33.49685        5.4278697E-08
  -33.44685        4.8220024E-08
  -33.39685        4.1215344E-08
  -33.34685        3.3420601E-08
  -33.29685        2.5616451E-08
  -33.24685        1.8729754E-08
  -33.19685        1.3264385E-08
  -33.14685        9.1711563E-09
  -33.09685        6.1861813E-09
  -33.04685        4.2139345E-09
  -32.99685        3.3695433E-09
  -32.94685        3.7094539E-09
  -32.89685        4.9994897E-09
  -32.84685        6.7938815E-09
  -32.79685        8.7545402E-09
  -32.74685        1.0885439E-08
  -32.69685        1.3424574E-08
  -32.64685        1.6454830E-08
  -32.59685        1.9580343E-08
  -32.54685        2.2001446E-08
  -32.49685        2.2982819E-08
  -32.44685        2.2323089E-08
  -32.39685        2.0383272E-08
  -32.34685        1.7631734E-08
  -32.29685        1.4159865E-08
  -32.24685        9.6783799E-09
  -32.19685        3.9912287E-09
  -32.14685       -2.6136380E-09
  -32.09685       -9.5562722E-09
  -32.04685       -1.6554107E-08
  -31.99685       -2.3885802E-08
  -31.94685       -3.1917629E-08
  -31.89685       -4.0369301E-08
  -31.84685       -4.8214620E-08
  -31.79685       -5.4457153E-08
  -31.74685       -5.8965675E-08
  -31.69685       -6.2372088E-08
  -31.64685       -6.5065464E-08
  -31.59685       -6.6423112E-08
  -31.54685       -6.5244606E-08
  -31.49685       -6.0988093E-08
  -31.44685       -5.4416294E-08
  -31.39685       -4.6875744E-08
  -31.34685       -3.9011390E-08
  -31.29685       -3.0399434E-08
  -31.24685       -2.0500570E-08
  -31.19685       -9.7411563E-09
  -31.14685        6.4865058E-10
  -31.09685        9.9022071E-09
  -31.04685        1.8547350E-08
  -30.99685        2.7694561E-08
  -30.94685        3.7496562E-08
  -30.89685        4.6540023E-08
  -30.84685        5.2920612E-08
  -30.79685        5.5853011E-08
  -30.74685        5.6107297E-08
  -30.69685        5.4959305E-08
  -30.64685        5.2986284E-08
  -30.59685        5.0005429E-08
  -30.54685        4.5923109E-08
  -30.49685        4.1206132E-08
  -30.44685        3.6361129E-08
  -30.39685        3.1228979E-08
  -30.34685        2.5176421E-08
  -30.29685        1.8052233E-08
  -30.24685        1.0695539E-08
  -30.19685        4.2951727E-09
  -30.14685       -6.3579514E-10
  -30.09685       -4.4142170E-09
  -30.04685       -7.3780129E-09
  -29.99685       -9.3265351E-09
  -29.94685       -1.0083743E-08
  -29.89685       -1.0425304E-08
  -29.84685       -1.1850753E-08
  -29.79685       -1.5000792E-08
  -29.74685       -1.8432097E-08
  -29.69685       -1.9469972E-08
  -29.64685       -1.6630407E-08
  -29.59685       -1.1140729E-08
  -29.54685       -5.8412417E-09
  -29.49685       -2.5601108E-09
  -29.44685       -7.4413592E-10
  -29.39685        1.2977371E-09
  -29.34685        4.1198915E-09
  -29.29685        6.4885053E-09
  -29.24685        7.0139579E-09
  -29.19685        6.0396617E-09
  -29.14685        5.4984848E-09
  -29.09685        6.8453887E-09
  -29.04685        9.3939780E-09
  -28.99685        1.0907467E-08
  -28.94685        9.7859276E-09
  -28.89685        6.5489987E-09
  -28.84685        3.2404353E-09
  -28.79685        1.6026178E-09
  -28.74685        1.8815129E-09
  -28.69685        3.1085878E-09
  -28.64685        4.1519228E-09
  -28.59685        4.4487649E-09
  -28.54685        4.1154640E-09
  -28.49685        3.7834607E-09
  -28.44685        4.3435309E-09
  -28.39685        6.4468009E-09
  -28.34685        9.8917265E-09
  -28.29685        1.3552731E-08
  -28.24685        1.6265945E-08
  -28.19685        1.8014319E-08
  -28.14685        2.0112751E-08
  -28.09685        2.3938110E-08
  -28.04685        2.9369767E-08