  -73.44685        0.0000000E+00
  -73.39685        0.0000000E+00
  -73.34686        0.0000000E+00
  -73.29685        0.0000000E+00
  -73.24685        0.0000000E+00
  -73.19685        0.0000000E+00
  -73.14685       -4.8504175E-38
  -73.09686       -8.2556423E-38
  -73.04685        0.0000000E+00
  -72.99685       -1.5266082E-38
  -72.94685       -2.2546787E-37
  -72.89685       -3.5163060E-37
  -72.84686       -4.8564727E-37
  -72.79685       -7.7101495E-37
  -72.74685       -8.5795070E-37
  -72.69685       -8.5933532E-37
  -72.64685       -6.9040800E-37
  -72.59686       -4.8193129E-37
  -72.54685       -3.1263523E-37
  -72.49685       -2.0155353E-37
  -72.44685       -1.1542691E-37
  -72.39685       -3.6465772E-37
  -72.34686       -8.7472395E-37
  -72.29685       -1.1376788E-36
  -72.24685       -1.3955191E-36
  -72.19685       -1.6812886E-36
  -72.14685       -2.4314703E-36
  -72.09686       -2.6958823E-36
  -72.04685       -3.3797403E-36
  -71.99685       -2.9812900E-36
  -71.94685       -2.8271730E-36
  -71.89685       -2.4805912E-36
  -71.84686       -2.5862678E-36
  -71.79685       -2.4429842E-36
  -71.74685       -1.9691340E-36
  -71.69685       -2.1245686E-36
  -71.64685       -2.6066489E-36
  -71.59686       -2.5480483E-36
  -71.54685       -1.6301531E-36
  -71.49685       -1.5268984E-36
  -71.44685       -2.2509384E-36
  -71.39685       -3.6390626E-36
  -71.34686       -5.3940687E-36
  -71.29685       -3.8067689E-36
  -71.24685       -3.3036148E-36
  -71.19685       -3.1089734E-36
  -71.14685       -3.4644084E-36
  -71.09686       -3.1124563E-36
  -71.04685       -4.6763395E-36
  -70.99685       -4.9210689E-36
  -70.94685       -1.4558922E-36
  -70.89685       -3.8483887E-36
  -70.84686       -1.4723926E-36
  -70.79685        5.4056662E-36
  -70.74685        4.5233846E-36
  -70.69685        4.9920212E-36
  -70.64685        7.8623410E-36
  -70.59686        1.2623954E-35
  -70.54685        1.5530179E-35
  -70.49685        1.9844732E-35
  -70.44685        2.2045963E-35
  -70.39685        2.1936543E-35
  -70.34686        1.9870301E-35
  -70.29685        2.3279231E-35
  -70.24685        2.4473551E-35
  -70.19685        2.7242986E-35
  -70.14685        2.8676836E-35
  -70.09686        2.7153033E-35
  -70.04685        2.9270372E-35
  -69.99685        2.5232554E-35
  -69.94685        3.1271467E-35
  -69.89685        3.7274533E-35
  -69.84686        5.4261944E-35
  -69.79685        4.4689107E-35
  -69.74685        3.2693959E-35
  -69.69685        1.5804295E-35
  -69.64685        1.4915204E-35
  -69.59686        1.1235212E-35
  -69.54685        3.0850591E-35
  -69.49685        3.8851985E-35
  -69.44685        3.9635193E-35
  -69.39685        4.6046895E-35
  -69.34686        5.0224821E-35
  -69.29685        2.3792455E-35
  -69.24685        9.7646122E-36
  -69.19685        3.6450008E-35
  -69.14685        4.9468866E-35
  -69.09686        3.6386102E-35
  -69.04685        7.9809713E-35
  -68.99685        5.2929624E-35
  -68.94685        3.5939345E-35
  -68.89685        1.7340087E-35
  -68.84686       -6.5097742E-36
  -68.79685        7.4852019E-35
  -68.74685        3.0997376E-35
  -68.69685        4.0627065E-35
  -68.64685        2.1278788E-35
  -68.59686       -1.6347080E-35
  -68.54685       -7.5835399E-36
  -68.49685       -2.7410869E-35
  -68.44685       -2.3180018E-35
  -68.39685       -1.9990065E-37
  -68.34686        3.0127286E-35
  -68.29685       -1.4093765E-35
  -68.24685       -8.2748919E-36
  -68.19685        5.2045598E-35
  -68.14685        3.6122419E-35
  -68.09686       -4.2437705E-35
  -68.04685       -5.0103650E-35
  -67.99685       -2.5454274E-35
  -67.94685       -8.3135237E-35
  -67.89685       -7.8417222E-35
  -67.84686       -2.1441511E-34
  -67.79685       -2.1720938E-34
  -67.74685       -1.7556995E-34
  -67.69685       -1.7643883E-34
  -67.64685       -1.6648827E-34
  -67.59686       -1.5077169E-34
  -67.54685       -1.8092595E-34
  -67.49685       -3.6830245E-34
  -67.44685       -2.7750070E-34
  -67.39685       -3.1177205E-34
  -67.34686       -2.1230211E-34
  -67.29685       -2.0367687E-34
  -67.24685       -1.4327623E-34
  -67.19685       -9.9525778E-35
  -67.14685       -1.0474257E-34
  -67.09686       -1.0056034E-34
  -67.04685       -4.1413495E-35
  -66.99685       -1.1596137E-34
  -66.94685       -9.2618520E-35
  -66.89685       -9.4139993E-35
  -66.84686       -7.7169746E-35
  -66.79685       -1.1260451E-34
  -66.74685       -8.3742332E-35
  -66.69685       -6.0228565E-35
  -66.64685       -6.6804928E-35
  -66.59686       -6.0630139E-35
  -66.54685       -8.7066232E-35
  -66.49685       -1.0821266E-34
  -66.44685       -1.0619399E-34
  -66.39685       -9.2882317E-35
  -66.34686       -1.3833839E-34
  -66.29685       -1.3299828E-34
  -66.24685       -1.3818073E-34
  -66.19685       -1.6673245E-34
  -66.14685       -1.9457012E-34
  -66.09686       -1.8359399E-34
  -66.04685       -1.8891194E-34
  -65.99685       -1.7711625E-34
  -65.94685       -1.5559612E-34
  -65.89685       -1.5404054E-34
  -65.84686       -1.5004249E-34
  -65.79685       -1.2422888E-34
  -65.74685       -1.0346745E-34
  -65.69685       -7.3215872E-35
  -65.64685       -3.6465462E-35
  -65.59686        2.8255881E-36
  -65.54685        4.7858424E-35
  -65.49685        1.0050644E-34
  -65.44685        1.5030279E-34
  -65.39685        1.9398765E-34
  -65.34686        2.4406045E-34
  -65.29685        2.9236468E-34
  -65.24685        3.4750602E-34
  -65.19685        4.0959256E-34
  -65.14685        4.7640426E-34
  -65.09686        5.4712071E-34
  -65.04685        6.0918071E-34
  -64.99685        6.7364679E-34
  -64.94685        7.3180708E-34
  -64.89685        7.7373049E-34
  -64.84686        8.1973916E-34
  -64.79685        8.5784997E-34
  -64.74685        8.9180155E-34
  -64.69685        9.2660555E-34
  -64.64685        9.5785029E-34
  -64.59686        9.8092276E-34
  -64.54685        9.9864922E-34
  -64.49685        9.8924645E-34
  -64.44685        9.6995769E-34
  -64.39685        9.4309214E-34
  -64.34686        8.9455359E-34
  -64.29685        8.4715628E-34
  -64.24685        7.9544353E-34
  -64.19685        7.4420065E-34
  -64.14685        6.6553639E-34
  -64.09686        5.7695462E-34
  -64.04685        4.5987970E-34
  -63.99685        3.6191965E-34
  -63.94685        2.4596030E-34
  -63.89685        1.0911575E-34
  -63.84685       -1.4310717E-35
  -63.79685       -1.1415665E-34
  -63.74685       -2.6093192E-34
  -63.69685       -3.9688505E-34
  -63.64685       -5.6277417E-34
  -63.59685       -6.6939137E-34
  -63.54685       -8.5158275E-34
  -63.49685       -9.7383132E-34
  -63.44685       -1.1010266E-33
  -63.39685       -1.2581042E-33
  -63.34685       -1.4008399E-33
  -63.29685       -1.5545009E-33
  -63.24685       -1.6329912E-33
  -63.19685       -1.8072256E-33
  -63.14685       -1.9177713E-33
  -63.09685       -2.0390511E-33
  -63.04685       -2.1428843E-33
  -62.99685       -2.1857406E-33
  -62.94685       -2.2923233E-33
  -62.89685       -2.4082031E-33
  -62.84685       -2.5109709E-33
  -62.79685       -2.6240729E-33
  -62.74685       -2.7288179E-33
  -62.69685       -2.8049767E-33
  -62.64685       -2.8603249E-33
  -62.59685       -2.9218776E-33
  -62.54685       -2.9647463E-33
  -62.49685       -3.0556494E-33
  -62.44685       -3.1381647E-33
  -62.39685       -3.2215036E-33
  -62.34685       -3.1838871E-33
  -62.29685       -3.2250606E-33
  -62.24685       -3.2188143E-33
  -62.19685       -3.2212781E-33
  -62.14685       -3.1946744E-33
  -62.09685       -3.1376181E-33
  -62.04685       -3.1313461E-33
  -61.99685       -3.1137152E-33
  -61.94685       -3.1164563E-33
  -61.89685       -3.0219835E-33
  -61.84685       -2.9302958E-33
  -61.79685       -2.7730918E-33
  -61.74685       -2.6643022E-33
  -61.69685       -2.5689305E-33
  -61.64685       -2.4318004E-33
  -61.59685       -2.3017682E-33
  -61.54685       -2.2272942E-33
  -61.49685       -2.1418051E-33
  -61.44685       -2.0373936E-33
  -61.39685       -1.9026733E-33
  -61.34685       -1.7661720E-33
  -61.29685       -1.6430009E-33
  -61.24685       -1.5259230E-33
  -61.19685       -1.4107241E-33
  -61.14685       -1.2919993E-33
  -61.09685       -1.1891244E-33
  -61.04685       -1.0520685E-33
  -60.99685       -9.2216742E-34
  -60.94685       -8.2727022E-34
  -60.89685       -7.0343772E-34
  -60.84685       -5.8818858E-34
  -60.79685       -4.6512273E-34
  -60.74685       -3.1713311E-34
  -60.69685       -1.7843187E-34
  -60.64685       -6.3897095E-35
  -60.59685        6.6236449E-35
  -60.54685        2.2556761E-34
  -60.49685        3.7963056E-34
  -60.44685        5.2107061E-34
  -60.39685        6.6129923E-34
  -60.34685        8.0088781E-34
  -60.29685        9.3710933E-34
  -60.24685        1.0888020E-33
  -60.19685        1.2211885E-33
  -60.14685        1.3641771E-33
  -60.09685        1.5117797E-33
  -60.04685        1.6599762E-33
  -59.99685        1.8022593E-33
  -59.94685        1.9463740E-33
  -59.89685        2.0818710E-33
  -59.84685        2.2020104E-33
  -59.79685        2.3135672E-33
  -59.74685        2.4245093E-33
  -59.69685        2.5245256E-33
  -59.64685        2.6220401E-33
  -59.59685        2.7057889E-33
  -59.54685        2.7573507E-33
  -59.49685        2.8010407E-33
  -59.44685        2.8438895E-33
  -59.39685        2.8703407E-33
  -59.34685        2.8859903E-33
  -59.29685        2.8951109E-33
  -59.24685        2.8889847E-33
  -59.19685        2.8968897E-33
  -59.14685        2.8966423E-33
  -59.09685        2.8643585E-33
  -59.04685        2.8211644E-33
  -58.99685        2.7679072E-33
  -58.94685        2.7032298E-33
  -58.89685        2.6178397E-33
  -58.84685        2.5166069E-33
  -58.79685        2.4195028E-33
  -58.74685        2.2808350E-33
  -58.69685        2.1403447E-33
  -58.64685        1.9994018E-33
  -58.59685        1.8698848E-33
  -58.54685        1.6563180E-33
  -58.49685        1.4351122E-33
  -58.44685        1.2242916E-33
  -58.39685        1.0534757E-33
  -58.34685        8.9564083E-34
  -58.29685        6.6588780E-34
  -58.24685        3.4607415E-34
  -58.19685        8.6712396E-36
  -58.14685       -1.6719543E-34
  -58.09685       -1.7118141E-34
  -58.04685       -3.0146682E-34
  -57.99685       -7.3368769E-34
  -57.94685       -1.3581454E-33
  -57.89685       -1.6315638E-33
  -57.84685       -1.2509742E-33
  -57.79685       -7.4926850E-34
  -57.74685       -1.2250249E-33
  -57.69685       -2.7431213E-33
  -57.64685       -3.7984227E-33
  -57.59685       -2.7491285E-33
  -57.54685       -3.3122701E-34
  -57.49685        2.1276340E-34
  -57.44685       -3.1650578E-33
  -57.39685       -7.5220412E-33
  -57.34685       -6.7847881E-33
  -57.29685        4.9982534E-34
  -57.24685        6.4697211E-33
  -57.19685        1.1578123E-33
  -57.14685       -1.3270921E-32
  -57.09685       -1.9581657E-32
  -57.04685       -3.9934985E-33
  -56.99685        2.0997471E-32
  -56.94685        2.2285063E-32
  -56.89685       -1.4002631E-32
  -56.84685       -5.1947576E-32
  -56.79685       -3.5274775E-32
  -56.74685        3.8006010E-32
  -56.69685        8.6083356E-32
  -56.64685        2.4987924E-32
  -56.59685       -1.0697990E-31
  -56.54685       -1.4766172E-31
  -56.49685        6.9083715E-33
  -56.44685        2.2085874E-31
  -56.39685        2.0680465E-31
  -56.34685       -1.2078717E-31
  -56.29685       -4.2621657E-31
  -56.24685       -2.5172567E-31
  -56.19685        3.6771238E-31
  -56.14685        7.3202533E-31
  -56.09685        1.9684605E-31
  -56.04685       -8.6404985E-31
  -55.99685       -1.1487243E-30
  -55.94685        9.7638565E-32
  -55.89685        1.7523337E-30
  -55.84685        1.6155865E-30
  -55.79685       -8.9190201E-31
  -55.74685       -3.2015226E-30
  -55.69685       -1.9306697E-30
  -55.64685        2.6299608E-30
  -55.59685        5.3845868E-30
  -55.54685        1.6703094E-30
  -55.49685       -5.9462538E-30
  -55.44685       -8.3215273E-30
  -55.39685        3.9740293E-32
  -55.34685        1.1753890E-29
  -55.29685        1.1743386E-29
  -55.24685       -4.6866847E-30
  -55.19685       -2.1138213E-29
  -55.14685       -1.4694218E-29
  -55.09685        1.4686549E-29
  -55.04685        3.5193397E-29
  -54.99685        1.4993672E-29
  -54.94685       -3.3681836E-29
  -54.89685       -5.4626957E-29
  -54.84685       -8.5086336E-30
  -54.79685        6.6662225E-29
  -54.74685        7.8826664E-29
  -54.69685       -1.2052816E-29
  -54.64685       -1.2010823E-28
  -54.59685       -1.0464144E-28
  -54.54685        5.8311212E-29
  -54.49685        2.0135483E-28
  -54.44685        1.2403006E-28
  -54.39685       -1.4794131E-28
  -54.34685       -3.1750436E-28
  -54.29685       -1.2097669E-28
  -54.24685        3.0619207E-28
  -54.19685        4.7292086E-28
  -54.14685        6.7051371E-29
  -54.09685       -5.6708150E-28
  -54.04685       -6.6469519E-28
  -53.99685        8.4802228E-29
  -53.94685        9.7417658E-28
  -53.89685        8.7606316E-28
  -53.84685       -4.0723091E-28
  -53.79685       -1.5786427E-27
  -53.74685       -1.0650296E-27
  -53.69685        1.0082655E-27
  -53.64685        2.4359688E-27
  -53.59685        1.1502310E-27
  -53.54685       -2.0400862E-27
  -53.49685       -3.5960351E-27
  -53.44685       -9.8884157E-28
  -53.39685        3.7107312E-27
  -53.34685        5.0899567E-27
  -53.29685        3.5111260E-28
  -53.24685       -6.2921441E-27
  -53.19685       -6.9058501E-27
  -53.14685        1.1161057E-27
  -53.09685        1.0131170E-26
  -53.04685        8.9592320E-27
  -52.99685       -3.9311585E-27
  -52.94685       -1.5656277E-26
  -52.89685       -1.1047817E-26
  -52.84685        8.8373768E-27
  -52.79685        2.3391188E-26
  -52.74685        1.2796124E-26
  -52.69685       -1.6879633E-26
  -52.64685       -3.3969500E-26
  -52.59685       -1.3571689E-26
  -52.54685        2.9522867E-26
  -52.49685        4.8165369E-26
  -52.44685        1.2367838E-26
  -52.39685       -4.8823588E-26
  -52.34685       -6.6928716E-26
  -52.29685       -7.6088007E-27
  -52.24685        7.7702935E-26
  -52.19685        9.1435653E-26
  -52.14685       -3.1546222E-27
  -52.09685       -1.2034463E-25
  -52.04685       -1.2311152E-25
  -51.99685        2.3759973E-26
  -51.94685        1.8279560E-25
  -51.89685        1.6360750E-25
  -51.84685       -6.0245461E-26
  -51.79685       -2.7380228E-25
  -51.74685       -2.1462011E-25
  -51.69685        1.2214991E-25
  -51.64685        4.0596683E-25
  -51.59685        2.7742300E-25
  -51.54685       -2.2452571E-25
  -51.49685       -5.9728204E-25
  -51.44685       -3.5187671E-25
  -51.39685        3.9098217E-25
  -51.34685        8.7305337E-25
  -51.29685        4.3449270E-25
  -51.24685       -6.5823323E-25
  -51.19685       -1.2681819E-24
  -51.14685       -5.1492698E-25
  -51.09685        1.0827632E-24
  -51.04685        1.8296509E-24
  -50.99685        5.7002369E-25
  -50.94685       -1.7501711E-24
  -50.89685       -2.6184893E-24
  -50.84685       -5.5373845E-25
  -50.79685        2.7882431E-24
  -50.74685        3.7104960E-24
  -50.69685        3.8131635E-25
  -50.64685       -4.3839888E-24
  -50.59685       -5.1934520E-24
  -50.54685        9.5277498E-26
  -50.49685        6.8052766E-24
  -50.44685        7.1582027E-24
  -50.39685       -1.1236297E-24
  -50.34685       -1.0426408E-23
  -50.29685       -9.6791332E-24
  -50.24685        3.1025513E-24
  -50.19685        1.5756066E-23
  -50.14685        1.2778348E-23
  -50.09685       -6.6525603E-24
  -50.04685       -2.3463659E-23
  -49.99685       -1.6364962E-23
  -49.94685        1.2709654E-23
  -49.89685        3.4399725E-23
  -49.84685        2.0141755E-23
  -49.79685       -2.2642787E-23
  -49.74685       -4.9598809E-23
  -49.69685       -2.3464196E-23
  -49.64685        3.8399654E-23
  -49.59685        7.0255895E-23
  -49.54685        2.5141486E-23
  -49.49685       -6.2676665E-23
  -49.44685       -9.7656077E-23
  -49.39685       -2.3160806E-23
  -49.34685        9.9111758E-23
  -49.29685        1.3303721E-22
  -49.24685        1.4317985E-23
  -49.19685       -1.5249047E-22
  -49.14685       -1.7735576E-22
  -49.09685        6.2610975E-24
  -49.04685        2.2894341E-22
  -48.99685        2.3091011E-22
  -48.94685       -4.5738108E-23
  -48.89685       -3.3612056E-22
  -48.84685       -2.9278612E-22
  -48.79685        1.1431316E-22
  -48.74685        4.8327012E-22
  -48.69685        3.6003031E-22
  -48.64685       -2.2616142E-22
  -48.59685       -6.8121252E-22
  -48.54685       -4.2653883E-22
  -48.49685        4.0048027E-22
  -48.44685        9.4204199E-22
  -48.39685        4.8149717E-22
  -48.34685       -6.6271899E-22
  -48.29685       -1.2785525E-21
  -48.24685       -5.0741735E-22
  -48.19685        1.0458102E-21
  -48.14685        1.7031423E-21
  -48.09685        4.7761744E-22
  -48.04685       -1.5913679E-21
  -47.99685       -2.2260476E-21
  -47.94685       -3.5307405E-22
  -47.89685        2.3507962E-21
  -47.84685        2.8529057E-21
  -47.79685        7.8868654E-23
  -47.74685       -3.3858484E-21
  -47.69685       -3.5810886E-21
  -47.64685        4.2017746E-22
  -47.59685        4.7688824E-21
  -47.54685        4.3951487E-21
  -47.49685       -1.2441822E-21
  -47.44685       -6.5823099E-21
  -47.39685       -5.2611082E-21
  -47.34685        2.5229602E-21
  -47.29685        8.9165546E-21
  -47.24685        6.1187382E-21
  -47.19685       -4.4218398E-21
  -47.14685       -1.1867784E-20
  -47.09685       -6.8736302E-21
  -47.04685        7.1459713E-21
  -46.99685        1.5532245E-20
  -46.94685        7.3856574E-21
  -46.89685       -1.0946640E-20
  -46.84685       -2.0000836E-20
  -46.79685       -7.4576585E-21
  -46.74685        1.6125403E-20
  -46.69685        2.5349756E-20
  -46.64685        6.8209023E-21
  -46.59685       -2.3038599E-20
  -46.54685       -3.1629031E-20
  -46.49685       -5.1186162E-21
  -46.44685        3.2101364E-20
  -46.39685        3.8849193E-20
  -46.34685        1.8899712E-21
  -46.29685       -4.3786638E-20
  -46.24685       -4.6960294E-20
  -46.19685        3.4518707E-21
  -46.14685        5.8625864E-20
  -46.09685        5.5830730E-20
  -46.04685       -1.1638733E-20
  -45.99685       -7.7201762E-20
  -45.94685       -6.5216858E-20
  -45.89685        2.3571699E-20
  -45.84685        1.0014146E-19
  -45.79685        7.4732382E-20
  -45.74685       -4.0341686E-20
  -45.69685       -1.2810251E-19
  -45.64685       -8.3812641E-20
  -45.59685        6.3248821E-20
  -45.54685        1.6175392E-19
  -45.49685        9.1676130E-20
  -45.44685       -9.3819924E-20
  -45.39685       -2.0175424E-19
  -45.34685       -9.7288712E-20
  -45.29685        1.3381396E-19
  -45.24685        2.4871005E-19
  -45.19685        9.9304428E-20
  -45.14685       -1.8525295E-19
  -45.09685       -3.0316169E-19
  -45.04685       -9.6034680E-20
  -44.99685        2.5042203E-19
  -44.94685        3.6553264E-19
  -44.89685        8.5374242E-20
  -44.84685       -3.3191816E-19
  -44.79685       -4.3612715E-19
  -44.74685       -6.4768843E-20
  -44.69685        4.3266297E-19
  -44.64685        5.1509354E-19
  -44.59685        3.1154669E-20
  -44.54685       -5.5592240E-19
  -44.49685       -6.0236533E-19
  -44.44685        1.9140231E-20
  -44.39685        7.0535738E-19
  -44.34685        6.9761828E-19
  -44.29685       -9.0467322E-20
  -44.24685       -8.8499030E-19
  -44.19685       -8.0006692E-19
  -44.14685        1.8814058E-19
  -44.09685        1.0993914E-18
  -44.04685        9.0847117E-19
  -43.99685       -3.1849499E-19
  -43.94685       -1.3536054E-18
  -43.89685       -1.0208731E-18
  -43.84685        4.8918267E-19
  -43.79685        1.6532676E-18
  -43.74685        1.1344983E-18
  -43.69685       -7.0930867E-19
  -43.64685       -2.0046100E-18
  -43.59685       -1.2457160E-18
  -43.54685        9.8922075E-19
  -43.49685        2.4138274E-18
  -43.44685        1.3491699E-18
  -43.39685       -1.3412141E-18
  -43.34685       -2.8873910E-18
  -43.29685       -1.4378871E-18
  -43.24685        1.7792111E-18
  -43.19685        3.4313098E-18
  -43.14685        1.5023541E-18
  -43.09685       -2.3193960E-18
  -43.04685       -4.0511799E-18
  -42.99685       -1.5300758E-18
  -42.94685        2.9808467E-18
  -42.89685        4.7528541E-18
  -42.84685        1.5063990E-18
  -42.79685       -3.7843840E-18
  -42.74685       -5.5409996E-18
  -42.69685       -1.4130876E-18
  -42.64685        4.7536651E-18
  -42.59685        6.4199679E-18
  -42.54685        1.2295139E-18
  -42.49685       -5.9132024E-18
  -42.44685       -7.3912211E-18
  -42.39685       -9.3053538E-19
  -42.34685        7.2888112E-18
  -42.29685        8.4518362E-18
  -42.24685        4.8414824E-19
  -42.19685       -8.9092141E-18
  -42.14685       -9.5946979E-18
  -42.09685        1.4885215E-19
  -42.04685        1.0805381E-17
  -41.99685        1.0806107E-17
  -41.94685       -1.0185021E-18
  -41.89685       -1.3014760E-17
  -41.84685       -1.2070966E-17
  -41.79685        2.1787749E-18
  -41.74685        1.5573329E-17
  -41.69685        1.3366373E-17
  -41.64685       -3.6900622E-18
  -41.59685       -1.8515015E-17
  -41.54685       -1.4662473E-17
  -41.49685        5.6124225E-18
  -41.44685        2.1859105E-17
  -41.39685        1.5909060E-17
  -41.34685       -8.0141038E-18
  -41.29685       -2.5612324E-17
  -41.24685       -1.7034274E-17
  -41.19685        1.0972374E-17
  -41.14685        2.9767904E-17
  -41.09685        1.7942464E-17
  -41.04685       -1.4577200E-17
  -40.99685       -3.4311961E-17
  -40.94685       -1.8521282E-17
  -40.89685        1.8930986E-17
  -40.84685        3.9238689E-17
  -40.79685        1.8673396E-17
  -40.74685       -2.4111178E-17
  -40.69685       -4.4524763E-17
  -40.64685       -1.8315144E-17
  -40.59685        3.0147904E-17
  -40.54685        5.0094491E-17
  -40.49685        1.7342548E-17
  -40.44685       -3.7047587E-17
  -40.39685       -5.5827439E-17
  -40.34685       -1.5619163E-17
  -40.29685        4.4827458E-17
  -40.24685        6.1616300E-17
  -40.19685        1.3057435E-17
  -40.14685       -5.3409993E-17
  -40.09685       -6.7239203E-17
  -40.04685       -9.4859245E-18
  -39.99685        6.2715888E-17
  -39.94685        7.2340908E-17
  -39.89685        4.4411501E-18
  -39.84685       -7.3105647E-17
  -39.79685       -7.7076385E-17
  -39.74685        2.1191333E-18
  -39.69685        8.4823090E-17
  -39.64685        8.1985815E-17
  -39.59685       -9.2669482E-18
  -39.54685       -9.6657570E-17
  -39.49685       -8.5959074E-17
  -39.44685        1.7507556E-17
  -39.39685        1.0816787E-16
  -39.34685        8.7585093E-17
  -39.29685       -2.9033768E-17
  -39.24685       -1.2214805E-16
  -39.19685       -9.0121321E-17
  -39.14685        4.0484592E-17
  -39.09685        1.3604073E-16
  -39.04685        9.3257619E-17
  -38.99685       -4.8446092E-17
  -38.94685       -1.4192431E-16
  -38.89685       -8.4977330E-17
  -38.84685        6.7338610E-17
  -38.79685        1.5380615E-16
  -38.74685        7.5086063E-17
  -38.69685       -9.6049460E-17
  -38.64685       -1.8365526E-16
  -38.59685       -9.1390468E-17
  -38.54685        9.1602424E-17
  -38.49685        1.7857348E-16
  -38.44685        8.0812409E-17
  -38.39685       -9.4208526E-17
  -38.34685       -1.5131330E-16
  -38.29685       -1.4661910E-17
  -38.24685        1.8443587E-16
  -38.19685        2.3717026E-16
  -38.14685        7.3748856E-17
  -38.09685       -1.6045297E-16
  -38.04685       -2.5320562E-16
  -37.99685       -1.4551370E-16
  -37.94685        9.0790434E-18
  -37.89685        1.2195569E-17
  -37.84685       -1.5916926E-16
  -37.79685       -3.1443811E-16
  -37.74685       -2.3936651E-16
  -37.69685        8.0719057E-17
  -37.64685        4.3770033E-16
  -37.59685        6.0331012E-16
  -37.54685        5.4669264E-16
  -37.49685        4.3975410E-16
  -37.44685        4.4623062E-16
  -37.39685        5.1895978E-16
  -37.34685        4.2340917E-16
  -37.29685       -2.9873042E-17
  -37.24685       -7.7942680E-16
  -37.19685       -1.5425901E-15
  -37.14685       -2.0471916E-15
  -37.09685       -2.2268738E-15
  -37.04685       -2.1864993E-15
  -36.99685       -1.9887639E-15
  -36.94685       -1.5010376E-15
  -36.89685       -4.7788244E-16
  -36.84685        1.1918591E-15
  -36.79685        3.3172275E-15
  -36.74685        5.4817380E-15
  -36.69685        7.2836278E-15
  -36.64685        8.5007125E-15
  -36.59685        9.0307180E-15
  -36.54685        8.6988225E-15
  -36.49685        7.1651118E-15
  -36.44685        4.0618207E-15
  -36.39685       -7.4768424E-16
  -36.34685       -7.0234384E-15
  -36.29685       -1.4241146E-14
  -36.24685       -2.1815537E-14
  -36.19685       -2.9234736E-14
  -36.14685       -3.5999768E-14
  -36.09685       -4.1478075E-14
  -36.04685       -4.4871164E-14
  -35.99685       -4.5375077E-14
  -35.94685       -4.2413128E-14
  -35.89685       -3.5750438E-14
  -35.84685       -2.5424322E-14
  -35.79685       -1.1605674E-14
  -35.74685        5.4450569E-15
  -35.69685        2.5284633E-14
  -35.64685        4.7169042E-14
  -35.59685        7.0051685E-14
  -35.54685        9.2722867E-14
  -35.49685        1.1398552E-13
  -35.44685        1.3274479E-13
  -35.39685        1.4798481E-13
  -35.34685        1.5870751E-13
  -35.29685        1.6392429E-13
  -35.24685        1.6272934E-13
  -35.19685        1.5441385E-13
  -35.14685        1.3856058E-13
  -35.09685        1.1507927E-13
  -35.04685        8.4180079E-14
  -34.99685        4.6316764E-14
  -34.94685        2.1512805E-15
  -34.89685       -4.7422989E-14
  -34.84685       -1.0121597E-13
  -34.79685       -1.5770820E-13
  -34.74685       -2.1511479E-13
  -34.69685       -2.7152377E-13
  -34.64685       -3.2500416E-13
  -34.59685       -3.7360647E-13
  -34.54685       -4.1530427E-13
  -34.49685       -4.4802310E-13
  -34.44685       -4.6983256E-13
  -34.39685       -4.7920018E-13
  -34.34685       -4.7510406E-13
  -34.29685       -4.5691418E-13
  -34.24685       -4.2417805E-13
  -34.19685       -3.7654707E-13
  -34.14685       -3.1392873E-13
  -34.09685       -2.3670291E-13
  -34.04685       -1.4576608E-13
  -33.99685       -4.2343844E-14
  -33.94685        7.2247757E-14
  -33.89685        1.9668314E-13
  -33.84685        3.2953013E-13
  -33.79685        4.6915201E-13
  -33.74685        6.1375785E-13
  -33.69685        7.6155136E-13
  -33.64685        9.1080377E-13
  -33.59685        1.0597702E-12
  -33.54685        1.2065682E-12
  -33.49685        1.3492020E-12
  -33.44685        1.4857714E-12
  -33.39685        1.6147153E-12
  -33.34685        1.7349154E-12
  -33.29685        1.8456267E-12
  -33.24685        1.9463409E-12
  -33.19685        2.0367015E-12
  -33.14685        2.1164648E-12
  -33.09685        2.1854844E-12
  -33.04685        2.2437048E-12
  -32.99685        2.2912039E-12
  -32.94685        2.3282500E-12
  -32.89685        2.3553071E-12
  -32.84685        2.3729076E-12
  -32.79685        2.3814572E-12
  -32.74685        2.3811014E-12
  -32.69685        2.3717528E-12
  -32.64685        2.3532107E-12
  -32.59685        2.3252719E-12
  -32.54685        2.2877364E-12
  -32.49685        2.2403915E-12
  -32.44685        2.1829569E-12
  -32.39685        2.1150846E-12
  -32.34685        2.0362954E-12
  -32.29685        1.9459664E-12
  -32.24685        1.8434169E-12
  -32.19685        1.7281152E-12
  -32.14685        1.5999056E-12
  -32.09685        1.4591153E-12
  -32.04685        1.3064878E-12
  -31.99685        1.1430493E-12
  -31.94685        9.6996304E-13
  -31.89685        7.8844337E-13
  -31.84685        5.9964734E-13
  -31.79685        4.0468003E-13
  -31.74685        2.0478481E-13
  -31.69685        1.6426497E-15
  -31.64685       -2.0241281E-13
  -31.59685       -4.0458370E-13
  -31.54685       -6.0215168E-13
  -31.49685       -7.9296395E-13
  -31.44685       -9.7546743E-13
  -31.39685       -1.1483270E-12
  -31.34685       -1.3100447E-12
  -31.29685       -1.4589287E-12
  -31.24685       -1.5933971E-12
  -31.19685       -1.7122149E-12
  -31.14685       -1.8144538E-12
  -31.09685       -1.8993882E-12
  -31.04685       -1.9666267E-12
  -30.99685       -2.0164625E-12
  -30.94685       -2.0500379E-12
  -30.89685       -2.0690043E-12
  -30.84685       -2.0748431E-12
  -30.79685       -2.0684231E-12
  -30.74685       -2.0502105E-12
  -30.69685       -2.0208798E-12
  -30.64685       -1.9817913E-12
  -30.59685       -1.9349873E-12
  -30.54685       -1.8828049E-12
  -30.49685       -1.8274676E-12
  -30.44685       -1.7707998E-12
  -30.39685       -1.7140297E-12
  -30.34685       -1.6576994E-12
  -30.29685       -1.6018050E-12
  -30.24685       -1.5461973E-12
  -30.19685       -1.4909615E-12
  -30.14685       -1.4364109E-12
  -30.09685       -1.3826933E-12
  -30.04685       -1.3294670E-12
  -29.99685       -1.2760614E-12
  -29.94685       -1.2219762E-12
  -29.89685       -1.1671370E-12
  -29.84685       -1.1115712E-12
  -29.79685       -1.0549010E-12
  -29.74685       -9.9632076E-13
  -29.69685       -9.3517880E-13
  -29.64685       -8.7147959E-13
  -29.59685       -8.0559355E-13
  -29.54685       -7.3735386E-13
  -29.49685       -6.6555984E-13
  -29.44685       -5.8863624E-13
  -29.39685       -5.0599227E-13
  -29.34685       -4.1877228E-13
  -29.29685       -3.2918695E-13
  -29.24685       -2.3899272E-13
  -29.19685       -1.4849260E-13
  -29.14685       -5.6840265E-14
  -29.09685        3.6876440E-14
  -29.04685        1.3290713E-13
  -28.99685        2.3097897E-13
  -28.94685        3.3080149E-13
  -28.89685        4.3218307E-13
  -28.84685        5.3467907E-13
  -28.79685        6.3736164E-13
  -28.74685        7.3916860E-13
  -28.69685        8.3955927E-13
  -28.64685        9.3879884E-13
  -28.59685        1.0375910E-12
  -28.54685        1.1364446E-12
  -28.49685        1.2353550E-12
  -28.44685        1.3339365E-12
  -28.39685        1.4317146E-12
  -28.34685        1.5283001E-12
  -28.29685        1.6235184E-12
  -28.24685        1.7175956E-12
  -28.19685        1.8112079E-12
  -28.14685        1.9050783E-12
  -28.09685        1.9991630E-12
  -28.04685        2.0920880E-12