  -73.44685        0.0000000E+00
  -73.39685        0.0000000E+00
  -73.34686       -1.2004314E-38
  -73.29685        0.0000000E+00
  -73.24685        0.0000000E+00
  -73.19685       -1.8558814E-38
  -73.14685        0.0000000E+00
  -73.09686       -3.5991121E-38
  -73.04685        4.2677624E-38
  -72.99685        1.2730085E-38
  -72.94685       -1.2770138E-37
  -72.89685       -1.7645976E-37
  -72.84686       -3.3184674E-37
  -72.79685       -5.7397405E-37
  -72.74685       -7.1619010E-37
  -72.69685       -4.0091373E-37
  -72.64685       -2.5562579E-37
  -72.59686       -4.1221478E-38
  -72.54685        1.1553291E-37
  -72.49685        2.3317979E-37
  -72.44685        1.9534668E-37
  -72.39685       -8.3882802E-38
  -72.34686       -6.5722207E-37
  -72.29685       -9.9530477E-37
  -72.24685       -8.1475941E-37
  -72.19685       -2.7625263E-37
  -72.14685        7.4658285E-37
  -72.09686        8.8969242E-37
  -72.04685        7.0415952E-37
  -71.99685        6.3835831E-37
  -71.94685        9.6733315E-37
  -71.89685        2.5940485E-37
  -71.84686       -2.1892414E-37
  -71.79685        1.6292866E-37
  -71.74685        4.3082319E-38
  -71.69685       -8.1631165E-37
  -71.64685       -1.0047068E-36
  -71.59686       -1.3669461E-36
  -71.54685       -1.5832545E-36
  -71.49685       -1.3892468E-36
  -71.44685       -1.3922246E-36
  -71.39685       -1.0336055E-36
  -71.34686       -5.7940741E-37
  -71.29685       -1.3209803E-36
  -71.24685       -7.9750277E-37
  -71.19685       -1.7727293E-36
  -71.14685       -3.9355392E-36
  -71.09686       -2.0456256E-36
  -71.04685       -3.6330517E-36
  -70.99685       -5.5926440E-36
  -70.94685       -3.5535885E-36
  -70.89685       -5.8973183E-36
  -70.84686       -6.3168257E-36
  -70.79685       -5.5976174E-36
  -70.74685       -7.0313324E-36
  -70.69685       -4.6190184E-36
  -70.64685       -5.2645878E-36
  -70.59686       -8.1229895E-36
  -70.54685       -1.2343214E-35
  -70.49685       -1.3828473E-35
  -70.44685       -1.5691950E-35
  -70.39685       -1.9200239E-35
  -70.34686       -1.9564473E-35
  -70.29685       -2.2605404E-35
  -70.24685       -2.5870455E-35
  -70.19685       -2.6975776E-35
  -70.14685       -1.8644682E-35
  -70.09686       -2.5305495E-35
  -70.04685       -1.8956043E-35
  -69.99685       -1.3609221E-35
  -69.94685       -1.5706161E-35
  -69.89685       -1.7245122E-35
  -69.84686        6.1880974E-36
  -69.79685        1.4760451E-35
  -69.74685       -7.9717444E-36
  -69.69685       -1.8184189E-35
  -69.64685       -2.1535217E-35
  -69.59686       -6.7050875E-36
  -69.54685       -1.2117831E-35
  -69.49685        1.0606301E-35
  -69.44685        1.9132897E-35
  -69.39685        9.9897691E-36
  -69.34686        2.1780216E-36
  -69.29685       -8.3298942E-36
  -69.24685       -4.6638898E-35
  -69.19685       -3.5883834E-36
  -69.14685        1.4152196E-35
  -69.09686        2.2187025E-35
  -69.04685        4.6678490E-35
  -68.99685        2.9582469E-35
  -68.94685        4.5775324E-36
  -68.89685       -9.7187757E-37
  -68.84686        7.5668870E-37
  -68.79685        9.6060979E-35
  -68.74685        1.2868351E-34
  -68.69685        2.2209490E-34
  -68.64685        1.8343281E-34
  -68.59686        8.5830861E-35
  -68.54685        1.7556648E-34
  -68.49685        1.0518085E-34
  -68.44685        1.1130267E-34
  -68.39685        3.9125939E-35
  -68.34686        1.5828915E-34
  -68.29685        8.3633163E-35
  -68.24685        6.0120331E-35
  -68.19685        1.3006754E-34
  -68.14685        6.6178518E-35
  -68.09686        4.6445202E-35
  -68.04685        1.0742327E-34
  -67.99685        1.7772112E-34
  -67.94685        2.6814417E-34
  -67.89685        3.4373278E-34
  -67.84686        3.1921830E-34
  -67.79685        2.6356161E-34
  -67.74685        2.7930106E-34
  -67.69685        3.6141178E-34
  -67.64685        3.3839714E-34
  -67.59686        3.0263784E-34
  -67.54685        3.1214991E-34
  -67.49685        1.6144500E-34
  -67.44685        1.0288370E-34
  -67.39685        8.4783672E-35
  -67.34686        2.8449827E-35
  -67.29685        4.2299369E-35
  -67.24685        6.7698407E-35
  -67.19685        7.5803946E-36
  -67.14685       -3.6780561E-35
  -67.09686       -8.4452668E-35
  -67.04685       -1.5655432E-34
  -66.99685       -1.7539966E-34
  -66.94685       -2.6430403E-34
  -66.89685       -3.0817150E-34
  -66.84686       -3.5737855E-34
  -66.79685       -3.2142757E-34
  -66.74685       -3.4923538E-34
  -66.69685       -4.0656171E-34
  -66.64685       -4.8977183E-34
  -66.59686       -5.1292907E-34
  -66.54685       -4.9762336E-34
  -66.49685       -5.1462256E-34
  -66.44685       -4.9071944E-34
  -66.39685       -4.9474362E-34
  -66.34686       -4.4901382E-34
  -66.29685       -4.1986720E-34
  -66.24685       -3.8908702E-34
  -66.19685       -3.5872621E-34
  -66.14685       -3.3882612E-34
  -66.09686       -2.8536450E-34
  -66.04685       -2.4153753E-34
  -65.99685       -2.1369144E-34
  -65.94685       -1.7766038E-34
  -65.89685       -1.7388460E-34
  -65.84686       -1.5550210E-34
  -65.79685       -1.4013911E-34
  -65.74685       -1.4023482E-34
  -65.69685       -1.4645561E-34
  -65.64685       -1.6891092E-34
  -65.59686       -1.9039110E-34
  -65.54685       -2.0752285E-34
  -65.49685       -2.2792748E-34
  -65.44685       -2.5225147E-34
  -65.39685       -2.7948542E-34
  -65.34686       -3.0357895E-34
  -65.29685       -3.1967840E-34
  -65.24685       -3.3406962E-34
  -65.19685       -3.4469505E-34
  -65.14685       -3.5330185E-34
  -65.09686       -3.5105103E-34
  -65.04685       -3.5923002E-34
  -64.99685       -3.6549212E-34
  -64.94685       -3.7345935E-34
  -64.89685       -3.9076054E-34
  -64.84686       -3.9149605E-34
  -64.79685       -3.7632327E-34
  -64.74685       -3.6098334E-34
  -64.69685       -3.4515001E-34
  -64.64685       -3.2602315E-34
  -64.59686       -3.1482168E-34
  -64.54685       -2.8958416E-34
  -64.49685       -2.5099022E-34
  -64.44685       -2.0045735E-34
  -64.39685       -1.5448796E-34
  -64.34686       -1.0733153E-34
  -64.29685       -4.9665337E-35
  -64.24685        1.3161774E-35
  -64.19685        7.4669743E-35
  -64.14685        1.8718122E-34
  -64.09686        2.7404132E-34
  -64.04685        3.8277972E-34
  -63.99685        4.6792683E-34
  -63.94685        5.6928966E-34
  -63.89685        6.4971442E-34
  -63.84685        7.5781990E-34
  -63.79685        8.3004430E-34
  -63.74685        8.8054041E-34
  -63.69685        9.2829863E-34
  -63.64685        9.9149881E-34
  -63.59685        9.8683283E-34
  -63.54685        9.8996635E-34
  -63.49685        9.8157782E-34
  -63.44685        9.7910864E-34
  -63.39685        9.8338414E-34
  -63.34685        9.3405874E-34
  -63.29685        8.5907074E-34
  -63.24685        8.2696781E-34
  -63.19685        7.6869837E-34
  -63.14685        7.3482434E-34
  -63.09685        7.0306827E-34
  -63.04685        6.6487269E-34
  -62.99685        6.4393411E-34
  -62.94685        6.6503593E-34
  -62.89685        6.0635580E-34
  -62.84685        6.4278584E-34
  -62.79685        6.6955805E-34
  -62.74685        7.2451218E-34
  -62.69685        7.8938055E-34
  -62.64685        7.1332717E-34
  -62.59685        7.6350089E-34
  -62.54685        7.2311270E-34
  -62.49685        7.6338371E-34
  -62.44685        7.5072207E-34
  -62.39685        7.7348557E-34
  -62.34685        8.0388927E-34
  -62.29685        7.9933028E-34
  -62.24685        7.7612051E-34
  -62.19685        7.6061721E-34
  -62.14685        8.0145242E-34
  -62.09685        7.8108744E-34
  -62.04685        7.9378020E-34
  -61.99685        7.3866114E-34
  -61.94685        5.7867245E-34
  -61.89685        5.4680085E-34
  -61.84685        4.8290024E-34
  -61.79685        3.8389905E-34
  -61.74685        2.8042827E-34
  -61.69685        2.0587250E-34
  -61.64685        1.8759026E-34
  -61.59685        1.4772433E-34
  -61.54685        9.1599726E-35
  -61.49685       -4.6800940E-36
  -61.44685       -8.1171765E-35
  -61.39685       -1.6366505E-34
  -61.34685       -2.2854154E-34
  -61.29685       -3.0793020E-34
  -61.24685       -3.9884904E-34
  -61.19685       -4.7075853E-34
  -61.14685       -5.5775513E-34
  -61.09685       -6.1862920E-34
  -61.04685       -7.3740010E-34
  -60.99685       -8.3288146E-34
  -60.94685       -9.0206895E-34
  -60.89685       -9.5122371E-34
  -60.84685       -1.0189113E-33
  -60.79685       -1.0983638E-33
  -60.74685       -1.1590858E-33
  -60.69685       -1.2027111E-33
  -60.64685       -1.2479774E-33
  -60.59685       -1.3034201E-33
  -60.54685       -1.3805319E-33
  -60.49685       -1.4257781E-33
  -60.44685       -1.4595612E-33
  -60.39685       -1.4704201E-33
  -60.34685       -1.4946233E-33
  -60.29685       -1.5108869E-33
  -60.24685       -1.5181894E-33
  -60.19685       -1.4942049E-33
  -60.14685       -1.4885054E-33
  -60.09685       -1.4642135E-33
  -60.04685       -1.4324052E-33
  -59.99685       -1.3919827E-33
  -59.94685       -1.3386581E-33
  -59.89685       -1.2789558E-33
  -59.84685       -1.2204014E-33
  -59.79685       -1.1611384E-33
  -59.74685       -1.1076347E-33
  -59.69685       -1.0639312E-33
  -59.64685       -1.0185985E-33
  -59.59685       -9.6993216E-34
  -59.54685       -9.1765270E-34
  -59.49685       -8.8032708E-34
  -59.44685       -8.4766890E-34
  -59.39685       -8.0812004E-34
  -59.34685       -7.6261372E-34
  -59.29685       -7.2938538E-34
  -59.24685       -7.0241862E-34
  -59.19685       -6.8268487E-34
  -59.14685       -6.5200691E-34
  -59.09685       -6.0918906E-34
  -59.04685       -5.6413287E-34
  -58.99685       -5.1542681E-34
  -58.94685       -4.8018356E-34
  -58.89685       -4.2553782E-34
  -58.84685       -3.6897560E-34
  -58.79685       -3.2259048E-34
  -58.74685       -2.6885806E-34
  -58.69685       -2.3310393E-34
  -58.64685       -2.0413187E-34
  -58.59685       -1.6971358E-34
  -58.54685       -1.0901349E-34
  -58.49685       -4.8995770E-35
  -58.44685       -5.8944211E-36
  -58.39685        2.2504713E-35
  -58.34685        7.5462943E-35
  -58.29685        9.0483299E-35
  -58.24685        1.8208328E-34
  -58.19685        2.3023974E-34
  -58.14685        2.7651360E-34
  -58.09685        3.1859148E-34
  -58.04685        4.2259293E-34
  -57.99685        5.3192102E-34
  -57.94685        5.9876041E-34
  -57.89685        5.6243525E-34
  -57.84685        5.8005673E-34
  -57.79685        7.3904841E-34
  -57.74685        9.6382786E-34
  -57.69685        1.1050706E-33
  -57.64685        9.8569573E-34
  -57.59685        7.2046122E-34
  -57.54685        7.7580947E-34
  -57.49685        1.2469194E-33
  -57.44685        1.6734900E-33
  -57.39685        1.4080052E-33
  -57.34685        5.3546348E-34
  -57.29685        8.6293488E-35
  -57.24685        9.3795192E-34
  -57.19685        2.4160277E-33
  -57.14685        2.5529653E-33
  -57.09685        4.6761505E-34
  -57.04685       -1.7960738E-33
  -56.99685       -9.7089809E-34
  -56.94685        3.0915744E-33
  -56.89685        5.6819775E-33
  -56.84685        2.1876012E-33
  -56.79685       -5.0628354E-33
  -56.74685       -7.0289081E-33
  -56.69685        1.4436003E-33
  -56.64685        1.2300889E-32
  -56.59685        1.0417438E-32
  -56.54685       -7.0458485E-33
  -56.49685       -2.1105096E-32
  -56.44685       -9.6345435E-33
  -56.39685        2.1336355E-32
  -56.34685        3.4566872E-32
  -56.29685        3.1668417E-33
  -56.24685       -4.5590097E-32
  -56.19685       -4.7823768E-32
  -56.14685        1.8695357E-32
  -56.09685        8.5197820E-32
  -56.04685        5.5133718E-32
  -55.99685       -6.6731080E-32
  -55.94685       -1.4088411E-31
  -55.89685       -4.1722697E-32
  -55.84685        1.5568670E-31
  -55.79685        2.0573874E-31
  -55.74685       -2.0202084E-32
  -55.69685       -3.0440320E-31
  -55.64685       -2.6292496E-31
  -55.59685        1.6738502E-31
  -55.54685        5.1881967E-31
  -55.49685        2.6256662E-31
  -55.44685       -4.6133498E-31
  -55.39685       -7.9799130E-31
  -55.34685       -1.3122443E-31
  -55.29685        9.5788392E-31
  -55.24685        1.0846214E-30
  -55.19685       -2.6976575E-31
  -55.14685       -1.7221651E-30
  -55.09685       -1.2689129E-30
  -55.04685        1.1135402E-30
  -54.99685        2.7545284E-30
  -54.94685        1.1096054E-30
  -54.89685       -2.6368975E-30
  -54.84685       -3.9717392E-30
  -54.79685       -2.3634558E-31
  -54.74685        5.0552735E-30
  -54.69685        5.0736950E-30
  -54.64685       -1.9206543E-30
  -54.59685       -8.5144159E-30
  -54.54685       -5.4699875E-30
  -54.49685        6.0735013E-30
  -54.44685        1.2886635E-29
  -54.39685        4.1121403E-30
  -54.34685       -1.3024377E-29
  -54.29685       -1.7564564E-29
  -54.24685        5.7019192E-31
  -54.19685        2.3408392E-29
  -54.14685        2.1103170E-29
  -54.09685       -1.0706159E-29
  -54.04685       -3.7312774E-29
  -53.99685       -2.0869351E-29
  -53.94685        2.8783456E-29
  -53.89685        5.3630956E-29
  -53.84685        1.2699549E-29
  -53.79685       -5.7153193E-29
  -53.74685       -6.9199283E-29
  -53.69685        9.2340961E-30
  -53.64685        9.7049157E-29
  -53.59685        7.7738585E-29
  -53.54685       -5.2160755E-29
  -53.49685       -1.4704764E-28
  -53.44685       -6.8831996E-29
  -53.39685        1.2365940E-28
  -53.34685        2.0081536E-28
  -53.29685        2.7206484E-29
  -53.24685       -2.2948801E-28
  -53.19685       -2.4425197E-28
  -53.14685        6.7139994E-29
  -53.09685        3.6993539E-28
  -53.04685        2.5244543E-28
  -52.99685       -2.3697629E-28
  -52.94685       -5.3406254E-28
  -52.89685       -1.8674982E-28
  -52.84685        5.0342721E-28
  -52.79685        6.9219309E-28
  -52.74685       -6.3321770E-30
  -52.69685       -8.7744588E-28
  -52.64685       -7.8668937E-28
  -52.59685        3.9295375E-28
  -52.54685        1.3464642E-27
  -52.49685        7.2295240E-28
  -52.44685       -1.0428097E-27
  -52.39685       -1.8541586E-27
  -52.34685       -3.6153307E-28
  -52.29685        2.0124186E-27
  -52.24685        2.2774738E-27
  -52.19685       -4.7903237E-28
  -52.14685       -3.3101863E-27
  -52.09685       -2.3940024E-27
  -52.04685        2.0135806E-27
  -51.99685        4.8541019E-27
  -51.94685        1.8608876E-27
  -51.89685       -4.4501123E-27
  -51.84685       -6.4020118E-27
  -51.79685       -1.9344525E-28
  -51.74685        7.9321435E-27
  -51.69685        7.4827494E-27
  -51.64685       -3.2157183E-27
  -51.59685       -1.2427236E-26
  -51.54685       -7.3112430E-27
  -51.49685        9.0429853E-27
  -51.44685        1.7575585E-26
  -51.39685        4.7136380E-27
  -51.34685       -1.7922268E-26
  -51.29685       -2.2508719E-26
  -51.24685        1.8836273E-27
  -51.19685        3.0207992E-26
  -51.14685        2.5580693E-26
  -51.09685       -1.4463728E-26
  -51.04685       -4.5721084E-26
  -50.99685       -2.4197499E-26
  -50.94685        3.5188931E-26
  -50.89685        6.3254553E-26
  -50.84685        1.4573310E-26
  -50.79685       -6.6085010E-26
  -50.74685       -8.0044822E-26
  -50.69685        8.3107351E-27
  -50.64685        1.0837285E-25
  -50.59685        9.1042893E-26
  -50.54685       -5.0613427E-26
  -50.49685       -1.6150514E-25
  -50.44685       -8.8112669E-26
  -50.39685        1.1925881E-25
  -50.34685        2.2193771E-25
  -50.29685        5.9449895E-26
  -50.24685       -2.2088391E-25
  -50.19685       -2.8134431E-25
  -50.14685        1.0932490E-26
  -50.09685        3.6042130E-25
  -50.04685        3.2515224E-25
  -49.99685       -1.4218101E-25
  -49.94685       -5.3755363E-25
  -49.89685       -3.2959932E-25
  -49.84685        3.5590781E-25
  -49.79685        7.4332470E-25
  -49.74685        2.6014786E-25
  -49.69685       -6.7297073E-25
  -49.64685       -9.5469485E-25
  -49.59685       -6.9704711E-26
  -49.54685        1.1092920E-24
  -49.49685        1.1289927E-24
  -49.44685       -3.0157723E-25
  -49.39685       -1.6700499E-24
  -49.34685       -1.1998253E-24
  -49.29685        9.2138687E-25
  -49.24685        2.3392576E-24
  -49.19685        1.0728076E-24
  -49.14685       -1.8562532E-24
  -49.09685       -3.0642369E-24
  -49.04685       -6.1950470E-25
  -48.99685        3.1608394E-24
  -48.94685        3.7399347E-24
  -48.89685       -3.2458535E-25
  -48.84685       -4.8617734E-24
  -48.79685       -4.1910638E-24
  -48.74685        1.9591538E-24
  -48.69685        6.9383914E-24
  -48.64685        4.1568844E-24
  -48.59685       -4.5125317E-24
  -48.54685       -9.3054876E-24
  -48.49685       -3.2943660E-24
  -48.44685        8.2038268E-24
  -48.39685        1.1769078E-23
  -48.34685        1.1780714E-24
  -48.29685       -1.3181142E-23
  -48.24685       -1.3944276E-23
  -48.19685        2.7404734E-24
  -48.14685        1.9503764E-23
  -48.09685        1.5231121E-23
  -48.04685       -9.0930600E-24
  -47.99685       -2.7030259E-23
  -47.94685       -1.4699513E-23
  -47.89685        1.8643311E-23
  -47.84685        3.5414714E-23
  -47.79685        1.1114016E-23
  -47.74685       -3.2204524E-23
  -47.69685       -4.4057904E-23
  -47.64685       -3.0514980E-24
  -47.59685        5.0327022E-23
  -47.54685        5.1761484E-23
  -47.49685       -1.1260938E-23
  -47.44685       -7.3258388E-23
  -47.39685       -5.6706578E-23
  -47.34685        3.3699807E-23
  -47.29685        1.0040475E-22
  -47.24685        5.5867798E-23
  -47.19685       -6.6626611E-23
  -47.14685       -1.3050476E-22
  -47.09685       -4.5155316E-23
  -47.04685        1.1271728E-22
  -46.99685        1.6163737E-22
  -46.94685        1.9836979E-23
  -46.89685       -1.7426542E-22
  -46.84685       -1.9077813E-22
  -46.79685        2.5240922E-23
  -46.74685        2.5249029E-22
  -46.69685        2.1339271E-22
  -46.64685       -9.5119788E-23
  -46.59685       -3.4616080E-22
  -46.54685       -2.2200212E-22
  -46.49685        1.9544135E-22
  -46.44685        4.5145275E-22
  -46.39685        2.0553340E-22
  -46.34685       -3.3326200E-22
  -46.29685       -5.6270117E-22
  -46.24685       -1.4980022E-22
  -46.19685        5.1737058E-22
  -46.14685        6.7417502E-22
  -46.09685        4.0623206E-23
  -46.04685       -7.5508095E-22
  -45.99685       -7.7866120E-22
  -45.94685        1.3460223E-22
  -45.89685        1.0484021E-21
  -45.84685        8.6373347E-22
  -45.79685       -3.8810318E-22
  -45.74685       -1.3919193E-21
  -45.69685       -9.0794391E-22
  -45.64685        7.3408851E-22
  -45.59685        1.7706849E-21
  -45.54685        8.7300886E-22
  -45.49685       -1.2012566E-21
  -45.44685       -2.1753317E-21
  -45.39685       -7.1862386E-22
  -45.34685        1.8218158E-21
  -45.29685        2.5977660E-21
  -45.24685        4.0502421E-22
  -45.19685       -2.6267298E-21
  -45.14685       -3.0319829E-21
  -45.09685        9.4959302E-23
  -45.04685        3.6239514E-21
  -44.99685        3.4545312E-21
  -44.94685       -7.9805748E-22
  -44.89685       -4.7763925E-21
  -44.84685       -3.7814917E-21
  -44.79685        1.7629717E-21
  -44.74685        6.0488475E-21
  -44.69685        3.9000241E-21
  -44.64685       -3.0792340E-21
  -44.59685       -7.4160474E-21
  -44.54685       -3.6830439E-21
  -44.49685        4.8664538E-21
  -44.44685        8.8936206E-21
  -44.39685        3.0500516E-21
  -44.34685       -7.2149722E-21
  -44.29685       -1.0525793E-20
  -44.24685       -2.0339695E-21
  -44.19685        1.0041942E-20
  -44.14685        1.2200349E-20
  -44.09685        6.0736256E-22
  -44.04685       -1.3207192E-20
  -43.99685       -1.3687791E-20
  -43.94685        1.3449703E-21
  -43.89685        1.6566914E-20
  -43.84685        1.4653506E-20
  -43.79685       -4.1022060E-21
  -43.74685       -2.0125774E-20
  -43.69685       -1.4809113E-20
  -43.64685        8.0778646E-21
  -43.59685        2.4222325E-20
  -43.54685        1.4319149E-20
  -43.49685       -1.3277428E-20
  -43.44685       -2.9003162E-20
  -43.39685       -1.3447795E-20
  -43.34685        1.9385944E-20
  -43.29685        3.4260470E-20
  -43.24685        1.2289877E-20
  -43.19685       -2.5938423E-20
  -43.14685       -3.9360989E-20
  -43.09685       -1.0474056E-20
  -43.04685        3.2642434E-20
  -42.99685        4.3306824E-20
  -42.94685        6.7613925E-21
  -42.89685       -4.0246751E-20
  -42.84685       -4.5868900E-20
  -42.79685       -7.3201704E-23
  -42.74685        5.0023770E-20
  -42.69685        4.7839070E-20
  -42.64685       -9.5136579E-21
  -42.59685       -6.2428833E-20
  -42.54685       -4.9938264E-20
  -42.49685        2.1204759E-20
  -42.44685        7.6941465E-20
  -42.39685        5.2609553E-20
  -42.34685       -3.3002416E-20
  -42.29685       -9.0419177E-20
  -42.24685       -5.3322343E-20
  -42.19685        4.4793695E-20
  -42.14685        9.9592145E-20
  -42.09685        4.7445474E-20
  -42.04685       -5.9647942E-20
  -41.99685       -1.0420536E-19
  -41.94685       -3.1995815E-20
  -41.89685        8.1248362E-20
  -41.84685        1.0689894E-19
  -41.79685        7.7674400E-21
  -41.74685       -1.1112927E-19
  -41.69685       -1.1211216E-19
  -41.64685        1.8293632E-20
  -41.59685        1.4271080E-19
  -41.54685        1.1825750E-19
  -41.49685       -3.9868215E-20
  -41.44685       -1.6381910E-19
  -41.39685       -1.1390894E-19
  -41.34685        6.0920695E-20
  -41.29685        1.6898960E-19
  -41.24685        8.8037123E-20
  -41.19685       -9.1425488E-20
  -41.14685       -1.6176502E-19
  -41.09685       -3.5483224E-20
  -41.04685        1.4472767E-19
  -40.99685        1.6077245E-19
  -40.94685       -2.5315711E-20
  -40.89685       -2.0976871E-19
  -40.84685       -1.6793759E-19
  -40.79685        7.9741568E-20
  -40.74685        2.6701486E-19
  -40.69685        1.7082522E-19
  -40.64685       -1.2380160E-19
  -40.59685       -2.9568783E-19
  -40.54685       -1.4167420E-19
  -40.49685        1.7700631E-19
  -40.44685        2.9510346E-19
  -40.39685        5.8667804E-20
  -40.34685       -2.7141947E-19
  -40.29685       -2.9186347E-19
  -40.24685        6.7275077E-20
  -40.19685        4.1088982E-19
  -40.14685        2.9576636E-19
  -40.09685       -2.2983379E-19
  -40.04685       -5.9860652E-19
  -39.99685       -3.2321966E-19
  -39.94685        3.9815662E-19
  -39.89685        7.9669208E-19
  -39.84685        3.5004916E-19
  -39.79685       -5.5806738E-19
  -39.74685       -9.4734276E-19
  -39.69685       -3.0542171E-19
  -39.64685        7.4055816E-19
  -39.59685        1.0070544E-18
  -39.54685        8.7958974E-20
  -39.49685       -1.0443033E-18
  -39.44685       -1.0097208E-18
  -39.39685        3.5805459E-19
  -39.34685        1.5989614E-18
  -39.29685        1.1253704E-18
  -39.24685       -8.6099622E-19
  -39.19685       -2.2831374E-18
  -39.14685       -1.3462651E-18
  -39.09685        1.2796308E-18
  -39.04685        2.8544421E-18
  -38.99685        1.4648225E-18
  -38.94685       -1.6409068E-18
  -38.89685       -3.1136590E-18
  -38.84685       -1.1559285E-18
  -38.79685        2.2144795E-18
  -38.74685        3.1316651E-18
  -38.69685        2.6060571E-19
  -38.64685       -3.3174432E-18
  -38.59685       -3.2565369E-18
  -38.54685        9.9642663E-19
  -38.49685        5.0133002E-18
  -38.44685        3.9562353E-18
  -38.39685       -1.7810750E-18
  -38.34685       -6.3631874E-18
  -38.29685       -4.6071164E-18
  -38.24685        2.0139579E-18
  -38.19685        6.4221442E-18
  -38.14685        3.5288092E-18
  -38.09685       -3.7608275E-18
  -38.04685       -7.1930485E-18
  -37.99685       -2.1978549E-18
  -37.94685        6.5073273E-18
  -37.89685        9.4772639E-18
  -37.84685        2.9150496E-18
  -37.79685       -6.5220106E-18
  -37.74685       -8.4669777E-18
  -37.69685       -4.2163895E-19
  -37.64685        8.6499782E-18
  -37.59685        7.5390027E-18
  -37.54685       -4.5155293E-18
  -37.49685       -1.5776171E-17
  -37.44685       -1.3917856E-17
  -37.39685        2.6727803E-19
  -37.34685        1.2648744E-17
  -37.29685        1.0473904E-17
  -37.24685       -3.1987157E-18
  -37.19685       -1.1605014E-17
  -37.14685       -2.0405146E-18
  -37.09685        1.9268211E-17
  -37.04685        3.2143828E-17
  -36.99685        2.3427707E-17
  -36.94685        1.7077910E-18
  -36.89685       -1.1364184E-17
  -36.84685       -5.3124293E-18
  -36.79685        5.7703694E-18
  -36.74685       -2.6667120E-18
  -36.69685       -3.7199576E-17
  -36.64685       -7.4843917E-17
  -36.59685       -8.3667056E-17
  -36.54685       -5.5811431E-17
  -36.49685       -1.6881977E-17
  -36.44685        1.0664477E-18
  -36.39685       -4.4807782E-18
  -36.34685       -1.7415295E-18
  -36.29685        4.0795942E-17
  -36.24685        1.1675333E-16
  -36.19685        1.8407385E-16
  -36.14685        2.0789974E-16
  -36.09685        1.9805318E-16
  -36.04685        1.9751859E-16
  -35.99685        2.3126525E-16
  -35.94685        2.7127360E-16
  -35.89685        2.5994726E-16
  -35.84685        1.7009824E-16
  -35.79685        3.6301374E-17
  -35.74685       -7.9267911E-17
  -35.69685       -1.5199818E-16
  -35.64685       -2.1912705E-16
  -35.59685       -3.3418880E-16
  -35.54685       -5.0062845E-16
  -35.49685       -6.5902806E-16
  -35.44685       -7.4501926E-16
  -35.39685       -7.5538202E-16
  -35.34685       -7.4871942E-16
  -35.29685       -7.7804900E-16
  -35.24685       -8.2859945E-16
  -35.19685       -8.3024422E-16
  -35.14685       -7.3102141E-16
  -35.09685       -5.5143735E-16
  -35.04685       -3.5975292E-16
  -34.99685       -1.9572605E-16
  -34.94685       -2.8118347E-17
  -34.89685        2.0720669E-16
  -34.84685        5.3023675E-16
  -34.79685        8.8538046E-16
  -34.74685        1.1903397E-15
  -34.69685        1.4125696E-15
  -34.64685        1.5928789E-15
  -34.59685        1.7927080E-15
  -34.54685        2.0242772E-15
  -34.49685        2.2361469E-15
  -34.44685        2.3658657E-15
  -34.39685        2.3992475E-15
  -34.34685        2.3720385E-15
  -34.29685        2.3155107E-15
  -34.24685        2.2081948E-15
  -34.19685        1.9892289E-15
  -34.14685        1.6197311E-15
  -34.09685        1.1283907E-15
  -34.04685        5.9067827E-16
  -33.99685        6.4665519E-17
  -33.94685       -4.5452910E-16
  -33.89685       -1.0143301E-15
  -33.84685       -1.6451648E-15
  -33.79685       -2.3307344E-15
  -33.74685       -3.0346277E-15
  -33.69685       -3.7498547E-15
  -33.64685       -4.5058739E-15
  -33.59685       -5.3204418E-15
  -33.54685       -6.1533255E-15
  -33.49685       -6.9219931E-15
  -33.44685       -7.5727134E-15
  -33.39685       -8.1272659E-15
  -33.34685       -8.6499741E-15
  -33.29685       -9.1676654E-15
  -33.24685       -9.6411713E-15
  -33.19685       -1.0028602E-14
  -33.14685       -1.0361595E-14
  -33.09685       -1.0732863E-14
  -33.04685       -1.1190344E-14
  -32.99685       -1.1647134E-14
  -32.94685       -1.1943108E-14
  -32.89685       -1.2001234E-14
  -32.84685       -1.1915079E-14
  -32.79685       -1.1854309E-14
  -32.74685       -1.1872896E-14
  -32.69685       -1.1861861E-14
  -32.64685       -1.1686946E-14
  -32.59685       -1.1387538E-14
  -32.54685       -1.1170414E-14
  -32.49685       -1.1186344E-14
  -32.44685       -1.1311613E-14
  -32.39685       -1.1216700E-14
  -32.34685       -1.0687700E-14
  -32.29685       -9.8339009E-15
  -32.24685       -8.9888678E-15
  -32.19685       -8.3529654E-15
  -32.14685       -7.8266793E-15
  -32.09685       -7.1519430E-15
  -32.04685       -6.2563717E-15
  -31.99685       -5.3670794E-15
  -31.94685       -4.7472571E-15
  -31.89685       -4.3479472E-15
  -31.84685       -3.7983778E-15
  -31.79685       -2.7365195E-15
  -31.74685       -1.1957390E-15
  -31.69685        4.1292118E-16
  -31.64685        1.6838865E-15
  -31.59685        2.5542046E-15
  -31.54685        3.2852478E-15
  -31.49685        4.1220791E-15
  -31.44685        5.0235161E-15
  -31.39685        5.7588516E-15
  -31.34685        6.2100610E-15
  -31.29685        6.5732632E-15
  -31.24685        7.1818814E-15
  -31.19685        8.1808924E-15
  -31.14685        9.3642940E-15
  -31.09685        1.0311871E-14
  -31.04685        1.0737370E-14
  -30.99685        1.0665209E-14
  -30.94685        1.0374431E-14
  -30.89685        1.0131567E-14
  -30.84685        1.0001510E-14
  -30.79685        9.8850727E-15
  -30.74685        9.6907659E-15
  -30.69685        9.4869054E-15
  -30.64685        9.4620856E-15
  -30.59685        9.7233597E-15
  -30.54685        1.0121293E-14
  -30.49685        1.0299319E-14
  -30.44685        9.9565758E-15
  -30.39685        9.1069425E-15
  -30.34685        8.0864033E-15
  -30.29685        7.2939388E-15
  -30.24685        6.8971250E-15
  -30.19685        6.7797872E-15
  -30.14685        6.7432916E-15
  -30.09685        6.7236040E-15
  -30.04685        6.7952020E-15
  -29.99685        6.9764696E-15
  -29.94685        7.0936604E-15
  -29.89685        6.8731146E-15
  -29.84685        6.1802895E-15
  -29.79685        5.1608040E-15
  -29.74685        4.1525663E-15
  -29.69685        3.4695397E-15
  -29.64685        3.2448242E-15
  -29.59685        3.4073965E-15
  -29.54685        3.7396721E-15
  -29.49685        3.9612343E-15
  -29.44685        3.8465003E-15
  -29.39685        3.3505110E-15
  -29.34685        2.6312500E-15
  -29.29685        1.8969047E-15
  -29.24685        1.2006434E-15
  -29.19685        4.2603351E-16
  -29.14685       -4.7511243E-16
  -29.09685       -1.2656800E-15
  -29.04685       -1.5572909E-15
  -28.99685       -1.2492856E-15
  -28.94685       -7.9500511E-16
  -28.89685       -8.9644091E-16
  -28.84685       -1.8421863E-15
  -28.79685       -3.1783874E-15
  -28.74685       -4.1361203E-15
  -28.69685       -4.4169638E-15
  -28.64685       -4.4873764E-15
  -28.59685       -5.0285585E-15
  -28.54685       -6.1282071E-15
  -28.49685       -7.1329364E-15
  -28.44685       -7.3635056E-15
  -28.39685       -6.9132216E-15
  -28.34685       -6.6203595E-15
  -28.29685       -7.2072907E-15
  -28.24685       -8.5237036E-15
  -28.19685       -9.7137823E-15
  -28.14685       -1.0125303E-14
  -28.09685       -9.9567122E-15
  -28.04685       -9.9802885E-15