  -73.44685        8.3414462E-31
  -73.39685        1.3467548E-30
  -73.34686        5.2844391E-31
  -73.29685       -7.6725560E-31
  -73.24685       -8.7349829E-31
  -73.19685        2.9367606E-31
  -73.14685        2.3215916E-21
  -73.09686       -8.7907409E-15
  -73.04685       -2.4987624E-14
  -72.99685        1.4721339E-13
  -72.94685        6.7567420E-13
  -72.89685       -2.0805254E-13
  -72.84686       -5.6372186E-12
  -72.79685       -7.8543751E-12
  -72.74685        1.7518802E-11
  -72.69685        6.0032784E-11
  -72.64685        1.2988939E-11
  -72.59686       -1.8862031E-10
  -72.54685       -2.6728417E-10
  -72.49685        2.1036889E-10
  -72.44685        8.8777685E-10
  -72.39685        4.3490486E-10
  -72.34686       -1.3812800E-09
  -72.29685       -2.0171191E-09
  -72.24685        6.2457778E-10
  -72.19685        3.3103511E-09
  -72.14685        1.0890203E-09
  -72.09686       -2.7747489E-09
  -72.04685       -5.9602823E-11
  -71.99685        4.1045247E-09
  -71.94685       -6.0792229E-09
  -71.89685       -1.9979330E-08
  -71.84686        3.8281427E-09
  -71.79685        5.9020618E-08
  -71.74685        4.5633072E-08
  -71.69685       -8.9529209E-08
  -71.64685       -1.7599972E-07
  -71.59686        1.6379314E-08
  -71.54685        3.3652435E-07
  -71.49685        2.5740687E-07
  -71.44685       -3.4675298E-07
  -71.39685       -6.8875357E-07
  -71.34686       -3.1607139E-09
  -71.29685        1.0209510E-06
  -71.24685        7.5112405E-07
  -71.19685       -8.9990266E-07
  -71.14685       -1.6478587E-06
  -71.09686        1.0359349E-07
  -71.04685        2.2284642E-06
  -70.99685        1.2708360E-06
  -70.94685       -2.0411128E-06
  -70.89685       -2.7901031E-06
  -70.84686        9.1279657E-07
  -70.79685        3.9089127E-06
  -70.74685        1.0025843E-06
  -70.69685       -4.2069641E-06
  -70.64685       -3.4139941E-06
  -70.59686        3.3271085E-06
  -70.54685        5.8805422E-06
  -70.49685       -9.2658502E-07
  -70.44685       -7.5694834E-06
  -70.39685       -2.9495995E-06
  -70.34686        7.3817396E-06
  -70.29685        7.4984387E-06
  -70.24685       -4.4466819E-06
  -70.19685       -1.1114440E-05
  -70.14685       -1.2912129E-06
  -70.09686        1.1591997E-05
  -70.04685        8.1588369E-06
  -69.99685       -7.4030750E-06
  -69.94685       -1.2619070E-05
  -69.89685       -1.0113374E-07
  -69.84686        1.1730105E-05
  -69.79685        6.6754842E-06
  -69.74685       -6.1749533E-06
  -69.69685       -8.5123747E-06
  -69.64685       -5.9455232E-08
  -69.59686        5.1785191E-06
  -69.54685        2.6409380E-06
  -69.49685        2.3308317E-07
  -69.44685        4.2859548E-07
  -69.39685       -2.6509758E-06
  -69.34686       -6.8583581E-06
  -69.29685       -1.5126512E-06
  -69.24685        1.0665395E-05
  -69.19685        1.0386603E-05
  -69.14685       -7.4063073E-06
  -69.09686       -1.8007047E-05
  -69.04685       -1.7291006E-06
  -68.99685        2.0395757E-05
  -68.94685        1.3186963E-05
  -68.89685       -1.6699631E-05
  -68.84686       -2.4670808E-05
  -68.79685        5.2967116E-06
  -68.74685        3.1534957E-05
  -68.69685        1.3504909E-05
  -68.64685       -2.6026055E-05
  -68.59686       -3.0973457E-05
  -68.54685        7.0509195E-06
  -68.49685        3.5586356E-05
  -68.44685        1.5448677E-05
  -68.39685       -2.4980283E-05
  -68.34686       -3.0631465E-05
  -68.29685        4.9602336E-06
  -68.24685        3.3378819E-05
  -68.19685        1.7439501E-05
  -68.14685       -2.1294954E-05
  -68.09686       -3.2582648E-05
  -68.04685       -2.2729516E-06
  -67.99685        3.0615847E-05
  -67.94685        2.4201589E-05
  -67.89685       -1.2608348E-05
  -67.84686       -3.1786749E-05
  -67.79685       -9.3099870E-06
  -67.74685        2.3405697E-05
  -67.69685        2.3230503E-05
  -67.64685       -6.1190331E-06
  -67.59686       -2.3089859E-05
  -67.54685       -8.7901744E-06
  -67.49685        1.1530090E-05
  -67.44685        1.1913888E-05
  -67.39685        1.6695692E-07
  -67.34686       -5.2047858E-06
  -67.29685       -4.7247786E-06
  -67.24685       -4.1066587E-06
  -67.19685        3.4061150E-06
  -67.14685        1.5220910E-05
  -67.09686        6.9937769E-06
  -67.04685       -2.3654839E-05
  -66.99685       -3.0228131E-05
  -66.94685        1.5416193E-05
  -66.89685        5.4771695E-05
  -66.84686        1.4689134E-05
  -66.79685       -6.2431835E-05
  -66.74685       -5.6198562E-05
  -66.69685        4.2873507E-05
  -66.64685        9.1035115E-05
  -66.59686        3.1161894E-06
  -66.54685       -9.7644261E-05
  -66.49685       -5.5526507E-05
  -66.44685        6.9397865E-05
  -66.39685        8.5449021E-05
  -66.34686       -2.8477738E-05
  -66.29685       -8.8195411E-05
  -66.24685       -2.6745654E-06
  -66.19685        8.0330828E-05
  -66.14685        2.3863711E-05
  -66.09686       -7.0176684E-05
  -66.04685       -3.9020986E-05
  -65.99685        6.0416565E-05
  -65.94685        5.1089348E-05
  -65.89685       -5.3461714E-05
  -65.84686       -6.8119763E-05
  -65.79685        3.9650848E-05
  -65.74685        8.4905012E-05
  -65.69685       -1.4837233E-05
  -65.64685       -8.8320528E-05
  -65.59686       -5.5043793E-06
  -65.54685        8.7568973E-05
  -65.49685        1.8846516E-05
  -65.44685       -9.6964650E-05
  -65.39685       -4.4878801E-05
  -65.34686        1.0412871E-04
  -65.29685        9.0119713E-05
  -65.24685       -8.6600470E-05
  -65.19685       -1.3672488E-04
  -65.14685        3.8445898E-05
  -65.09686        1.6072192E-04
  -65.04685        2.5690952E-05
  -64.99685       -1.4959081E-04
  -64.94685       -7.9505429E-05
  -64.89685        1.1467213E-04
  -64.84686        1.0826283E-04
  -64.79685       -8.1190468E-05
  -64.74685       -1.2651146E-04
  -64.69685        5.2591484E-05
  -64.64685        1.5178294E-04
  -64.59686       -3.4681309E-06
  -64.54685       -1.6207992E-04
  -64.49685       -6.6512308E-05
  -64.44685        1.2426182E-04
  -64.39685        1.0997961E-04
  -64.34686       -6.0280436E-05
  -64.29685       -1.0064335E-04
  -64.24685        2.3885417E-05
  -64.19685        7.2816300E-05
  -64.14685       -2.8611448E-05
  -64.09686       -7.2399314E-05
  -64.04685        3.9091366E-05
  -63.99685        1.0604459E-04
  -63.94685       -1.2536493E-05
  -63.89685       -1.3191078E-04
  -63.84685       -4.6932819E-05
  -63.79685        1.1121789E-04
  -63.74685        8.8313849E-05
  -63.69685       -6.8084359E-05
  -63.64685       -9.4460149E-05
  -63.59685        4.3383923E-05
  -63.54685        1.0136231E-04
  -63.49685       -2.3962853E-05
  -63.44685       -1.2239466E-04
  -63.39685       -2.3934906E-05
  -63.34685        1.2116737E-04
  -63.29685        8.8891393E-05
  -63.24685       -6.7566631E-05
  -63.19685       -1.1845281E-04
  -63.14685       -1.0487005E-05
  -63.09685        8.6403779E-05
  -63.04685        5.4920747E-05
  -62.99685       -2.8322565E-05
  -62.94685       -4.7993177E-05
  -62.89685       -6.6056314E-06
  -62.84685        2.2858061E-05
  -62.79685        1.0188625E-05
  -62.74685       -1.5533800E-05
  -62.69685       -1.5332440E-05
  -62.64685        1.8181094E-05
  -62.59685        4.3798536E-05
  -62.54685        9.6246795E-06
  -62.49685       -6.0927006E-05
  -62.44685       -6.7017267E-05
  -62.39685        2.5437132E-05
  -62.34685        9.8071505E-05
  -62.29685        3.8336144E-05
  -62.24685       -7.2403229E-05
  -62.19685       -6.9534086E-05
  -62.14685        3.0386145E-05
  -62.09685        5.5242017E-05
  -62.04685       -2.7326545E-05
  -61.99685       -5.0903473E-05
  -61.94685        4.8457747E-05
  -61.89685        9.4513198E-05
  -61.84685       -2.8044191E-05
  -61.79685       -1.4028592E-04
  -61.74685       -4.4731507E-05
  -61.69685        1.2754380E-04
  -61.64685        1.0900128E-04
  -61.59685       -6.6232169E-05
  -61.54685       -1.1796245E-04
  -61.49685        1.5948324E-05
  -61.44685        9.2981332E-05
  -61.39685       -6.4522146E-06
  -61.34685       -8.5118460E-05
  -61.29685        5.5456512E-06
  -61.24685        9.9450066E-05
  -61.19685        1.9459065E-05
  -61.14685       -9.9475823E-05
  -61.09685       -4.9640774E-05
  -61.04685        7.7693483E-05
  -60.99685        5.7844463E-05
  -60.94685       -6.2826097E-05
  -60.89685       -5.5891134E-05
  -60.84685        6.6929257E-05
  -60.79685        7.0243637E-05
  -60.74685       -6.9044378E-05
  -60.69685       -1.0151352E-04
  -60.64685        4.8178204E-05
  -60.59685        1.2737000E-04
  -60.54685       -7.4470358E-06
  -60.49685       -1.2990984E-04
  -60.44685       -3.3769269E-05
  -60.39685        1.0963780E-04
  -60.34685        5.8176327E-05
  -60.29685       -8.1124170E-05
  -60.24685       -6.2311483E-05
  -60.19685        5.7902209E-05
  -60.14685        4.9450085E-05
  -60.09685       -5.2454710E-05
  -60.04685       -2.9060117E-05
  -59.99685        7.8683617E-05
  -59.94685        3.1189145E-05
  -59.89685       -1.2267996E-04
  -59.84685       -7.8554513E-05
  -59.79685        1.4470465E-04
  -59.74685        1.5476077E-04
  -59.69685       -1.2465798E-04
  -59.64685       -2.3322178E-04
  -59.59685        6.2365354E-05
  -59.54685        2.9482489E-04
  -59.49685        4.0062980E-05
  -59.44685       -3.1451188E-04
  -59.39685       -1.6383654E-04
  -59.34685        2.7469266E-04
  -59.29685        2.7425453E-04
  -59.24685       -1.8173436E-04
  -59.19685       -3.4028356E-04
  -59.14685        6.3065163E-05
  -59.09685        3.4960400E-04
  -59.04685        4.4832053E-05
  -58.99685       -3.1910319E-04
  -58.94685       -1.2384840E-04
  -58.89685        2.7625635E-04
  -58.84685        1.8330118E-04
  -58.79685       -2.2851364E-04
  -58.74685       -2.3013752E-04
  -58.69685        1.7525684E-04
  -58.64685        2.6143307E-04
  -58.59685       -1.2804022E-04
  -58.54685       -2.9142562E-04
  -58.49685        8.3215476E-05
  -58.44685        3.3638350E-04
  -58.39685       -1.0241149E-05
  -58.34685       -3.7446767E-04
  -58.29685       -1.0034630E-04
  -58.24685        3.7015171E-04
  -58.19685        2.2121874E-04
  -58.14685       -3.1688882E-04
  -58.09685       -3.2693270E-04
  -58.04685        2.2388597E-04
  -57.99685        4.0342539E-04
  -57.94685       -1.0044652E-04
  -57.89685       -4.3701063E-04
  -57.84685       -3.6717916E-05
  -57.79685        4.2143540E-04
  -57.74685        1.6886483E-04
  -57.69685       -3.5620420E-04
  -57.64685       -2.7461184E-04
  -57.59685        2.4790913E-04
  -57.54685        3.2461699E-04
  -57.49685       -1.3264075E-04
  -57.44685       -3.1605177E-04
  -57.39685        5.6458179E-05
  -57.34685        2.9559346E-04
  -57.29685       -1.2946859E-05
  -57.24685       -2.9728713E-04
  -57.19685       -4.1242762E-05
  -57.14685        2.9728268E-04
  -57.09685        1.0875561E-04
  -57.04685       -2.7741885E-04
  -56.99685       -1.7000901E-04
  -56.94685        2.5406011E-04
  -56.89685        2.4212283E-04
  -56.84685       -2.1184052E-04
  -56.79685       -3.2884302E-04
  -56.74685        1.1483541E-04
  -56.69685        3.8085194E-04
  -56.64685        1.6355118E-05
  -56.59685       -3.7093327E-04
  -56.54685       -1.3602720E-04
  -56.49685        3.2060998E-04
  -56.44685        2.3638380E-04
  -56.39685       -2.3810590E-04
  -56.34685       -3.1235500E-04
  -56.29685        1.2130943E-04
  -56.24685        3.3855095E-04
  -56.19685        2.4931885E-06
  -56.14685       -3.1217097E-04
  -56.09685       -1.0457795E-04
  -56.04685        2.5322242E-04
  -55.99685        1.8064299E-04
  -55.94685       -1.6922933E-04
  -55.89685       -2.2279863E-04
  -55.84685        6.7263361E-05
  -55.79685        2.1244262E-04
  -55.74685        1.9624747E-05
  -55.69685       -1.5714973E-04
  -55.64685       -5.8002926E-05
  -55.59685        9.8131757E-05
  -55.54685        5.4063534E-05
  -55.49685       -6.5883534E-05
  -55.44685       -3.7603088E-05
  -55.39685        6.0332586E-05
  -55.34685        2.7821721E-05
  -55.29685       -7.3822615E-05
  -55.24685       -3.9592011E-05
  -55.19685        9.0138659E-05
  -55.14685        8.1619626E-05
  -55.09685       -7.7405581E-05
  -55.04685       -1.2931477E-04
  -54.99685        2.6805696E-05
  -54.94685        1.4775700E-04
  -54.89685        3.2275897E-05
  -54.84685       -1.4060437E-04
  -54.79685       -8.6397144E-05
  -54.74685        1.2177692E-04
  -54.69685        1.5052123E-04
  -54.64685       -6.7130881E-05
  -54.59685       -2.0391532E-04
  -54.54685       -3.5647434E-05
  -54.49685        1.9575629E-04
  -54.44685        1.3688450E-04
  -54.39685       -1.2841639E-04
  -54.34685       -1.9276833E-04
  -54.29685        4.6619443E-05
  -54.24685        2.1560006E-04
  -54.19685        4.0404382E-05
  -54.14685       -2.1193197E-04
  -54.09685       -1.3970406E-04
  -54.04685        1.5640857E-04
  -53.99685        2.1799630E-04
  -53.94685       -5.2040956E-05
  -53.89685       -2.3394017E-04
  -53.84685       -5.4632514E-05
  -53.79685        1.8911701E-04
  -53.74685        1.2098113E-04
  -53.69685       -1.1898708E-04
  -53.64685       -1.3522367E-04
  -53.59685        6.6565684E-05
  -53.54685        1.2246709E-04
  -53.49685       -5.1806797E-05
  -53.44685       -1.2966234E-04
  -53.39685        4.0781350E-05
  -53.34685        1.6259005E-04
  -53.29685        8.9120058E-06
  -53.24685       -1.6971934E-04
  -53.19685       -7.0380556E-05
  -53.14685        1.3490766E-04
  -53.09685        9.3771261E-05
  -53.04685       -1.1174471E-04
  -52.99685       -1.0570561E-04
  -52.94685        1.1622480E-04
  -52.89685        1.5976594E-04
  -52.84685       -8.3646868E-05
  -52.79685       -2.2091280E-04
  -52.74685       -1.1069071E-05
  -52.69685        2.1415854E-04
  -52.64685        9.5136755E-05
  -52.59685       -1.5702717E-04
  -52.54685       -1.2231694E-04
  -52.49685        1.2105918E-04
  -52.44685        1.4232332E-04
  -52.39685       -1.0082762E-04
  -52.34685       -1.8969887E-04
  -52.29685        4.1687548E-05
  -52.24685        2.1994907E-04
  -52.19685        5.2253134E-05
  -52.14685       -1.9217961E-04
  -52.09685       -1.3000258E-04
  -52.04685        1.2157602E-04
  -51.99685        1.6241208E-04
  -51.94685       -4.3567332E-05
  -51.89685       -1.5188618E-04
  -51.84685       -1.5037891E-05
  -51.79685        1.1823243E-04
  -51.74685        4.5271318E-05
  -51.69685       -8.5601132E-05
  -51.64685       -6.2215018E-05
  -51.59685        5.4171607E-05
  -51.54685        7.3589967E-05
  -51.49685       -1.0330322E-05
  -51.44685       -5.6074583E-05
  -51.39685       -2.2523967E-05
  -51.34685        8.3123241E-06
  -51.29685        5.8445517E-06
  -51.24685        1.7583941E-05
  -51.19685        3.8880855E-05
  -51.14685        9.0662979E-06
  -51.09685       -5.3612432E-05
  -51.04685       -5.0749244E-05
  -50.99685        3.0129320E-05
  -50.94685        7.0587776E-05
  -50.89685        7.9482749E-07
  -50.84685       -7.7911143E-05
  -50.79685       -3.7672842E-05
  -50.74685        7.4707496E-05
  -50.69685        9.1768728E-05
  -50.64685       -2.9964784E-05
  -50.59685       -1.2891597E-04
  -50.54685       -5.5660214E-05
  -50.49685        1.0321383E-04
  -50.44685        1.2531890E-04
  -50.39685       -3.1311338E-05
  -50.34685       -1.4439327E-04
  -50.29685       -3.9020571E-05
  -50.24685        1.3392520E-04
  -50.19685        1.0126916E-04
  -50.14685       -1.0454013E-04
  -50.09685       -1.6230336E-04
  -50.04685        4.1023006E-05
  -49.99685        1.9806296E-04
  -49.94685        4.6602778E-05
  -49.89685       -1.8913919E-04
  -49.84685       -1.2817545E-04
  -49.79685        1.4531992E-04
  -49.74685        1.9033450E-04
  -49.69685       -7.7322497E-05
  -49.64685       -2.2675288E-04
  -49.59685       -8.3269888E-06
  -49.54685        2.2492827E-04
  -49.49685        9.0577894E-05
  -49.44685       -1.8801641E-04
  -49.39685       -1.5043947E-04
  -49.34685        1.3397627E-04
  -49.29685        1.8806147E-04
  -49.24685       -6.9502050E-05
  -49.19685       -1.9926323E-04
  -49.14685        4.8647294E-06
  -49.09685        1.7928435E-04
  -49.04685        3.4133835E-05
  -48.99685       -1.5399829E-04
  -48.94685       -4.8150538E-05
  -48.89685        1.5045346E-04
  -48.84685        7.0361282E-05
  -48.79685       -1.5385899E-04
  -48.74685       -1.1182880E-04
  -48.69685        1.3990677E-04
  -48.64685        1.5431757E-04
  -48.59685       -1.1206963E-04
  -48.54685       -1.9324741E-04
  -48.49685        7.3766729E-05
  -48.44685        2.3275794E-04
  -48.39685       -1.2995776E-05
  -48.34685       -2.5770220E-04
  -48.29685       -6.7847075E-05
  -48.24685        2.5332937E-04
  -48.19685        1.5448254E-04
  -48.14685       -2.1705210E-04
  -48.09685       -2.3783538E-04
  -48.04685        1.4132391E-04
  -47.99685        2.9543255E-04
  -47.94685       -3.3244749E-05
  -47.89685       -3.0142261E-04
  -47.84685       -7.1816510E-05
  -47.79685        2.6439709E-04
  -47.74685        1.5244896E-04
  -47.69685       -2.0705971E-04
  -47.64685       -2.1469420E-04
  -47.59685        1.2827999E-04
  -47.54685        2.5016157E-04
  -47.49685       -2.9912653E-05
  -47.44685       -2.3526748E-04
  -47.39685       -5.1323401E-05
  -47.34685        1.8273076E-04
  -47.29685        8.6637861E-05
  -47.24685       -1.3822582E-04
  -47.19685       -9.9506891E-05
  -47.14685        1.1462884E-04
  -47.09685        1.2261971E-04
  -47.04685       -8.3679472E-05
  -46.99685       -1.4588935E-04
  -46.94685        3.5488916E-05
  -46.89685        1.4645558E-04
  -46.84685        7.7061350E-06
  -46.79685       -1.3302053E-04
  -46.74685       -3.8259241E-05
  -46.69685        1.2244664E-04
  -46.64685        7.3945710E-05
  -46.59685       -1.0189735E-04
  -46.54685       -1.1399832E-04
  -46.49685        5.4220302E-05
  -46.44685        1.3027841E-04
  -46.39685        2.7810374E-06
  -46.34685       -1.1355686E-04
  -46.29685       -4.0015868E-05
  -46.24685        8.8002882E-05
  -46.19685        5.9194321E-05
  -46.14685       -7.1331335E-05
  -46.09685       -8.2937586E-05
  -46.04685        4.8896600E-05
  -45.99685        1.1286717E-04
  -45.94685       -5.5051271E-07
  -45.89685       -1.2123061E-04
  -45.84685       -6.1355982E-05
  -45.79685        9.0303365E-05
  -45.74685        1.0253127E-04
  -45.69685       -3.9032511E-05
  -45.64685       -1.0923706E-04
  -45.59685       -8.0429032E-07
  -45.54685        1.0235238E-04
  -45.49685        2.4397666E-05
  -45.44685       -1.0544012E-04
  -45.39685       -5.7468795E-05
  -45.34685        1.0606940E-04
  -45.29685        1.1068251E-04
  -45.24685       -7.3415526E-05
  -45.19685       -1.5349653E-04
  -45.14685        1.2920543E-05
  -45.09685        1.6150868E-04
  -45.04685        4.2279367E-05
  -44.99685       -1.5279205E-04
  -44.94685       -9.1059723E-05
  -44.89685        1.3872626E-04
  -44.84685        1.5247856E-04
  -44.79685       -9.0815942E-05
  -44.74685       -2.0194291E-04
  -44.69685        3.0244044E-06
  -44.64685        1.9534401E-04
  -44.59685        7.5093863E-05
  -44.54685       -1.4271855E-04
  -44.49685       -1.0575352E-04
  -44.44685        9.1075366E-05
  -44.39685        1.0193380E-04
  -44.34685       -6.4870001E-05
  -44.29685       -9.1902519E-05
  -44.24685        6.1576611E-05
  -44.19685        9.4550436E-05
  -44.14685       -6.7894893E-05
  -44.09685       -1.1778004E-04
  -44.04685        6.7472865E-05
  -43.99685        1.5963099E-04
  -43.94685       -4.6114950E-05
  -43.89685       -2.1357590E-04
  -43.84685       -1.4609908E-05
  -43.79685        2.5515122E-04
  -43.74685        1.2191084E-04
  -43.69685       -2.3972086E-04
  -43.64685       -2.3741867E-04
  -43.59685        1.5433181E-04
  -43.54685        3.0763910E-04
  -43.49685       -3.7381626E-05
  -43.44685       -3.2369950E-04
  -43.39685       -8.1152313E-05
  -43.34685        2.9612790E-04
  -43.29685        1.9466487E-04
  -43.24685       -2.1508455E-04
  -43.19685       -2.7180486E-04
  -43.14685        9.4020143E-05
  -43.09685        2.7860358E-04
  -43.04685        1.2587580E-05
  -42.99685       -2.3599144E-04
  -42.94685       -7.6173470E-05
  -42.89685        1.8616016E-04
  -42.84685        1.1442964E-04
  -42.79685       -1.3556526E-04
  -42.74685       -1.3574536E-04
  -42.69685        7.9854239E-05
  -42.64685        1.2716970E-04
  -42.59685       -4.1944328E-05
  -42.54685       -9.9659832E-05
  -42.49685        4.1851858E-05
  -42.44685        9.1415073E-05
  -42.39685       -5.8993282E-05
  -42.34685       -1.1932092E-04
  -42.29685        5.8585669E-05
  -42.24685        1.6813558E-04
  -42.19685       -2.5159401E-05
  -42.14685       -2.2068741E-04
  -42.09685       -5.3483302E-05
  -42.04685        2.4855012E-04
  -41.99685        1.8018263E-04
  -41.94685       -2.0009393E-04
  -41.89685       -3.0409620E-04
  -41.84685        5.9926788E-05
  -41.79685        3.4794907E-04
  -41.74685        1.1314586E-04
  -41.69685       -2.8918558E-04
  -41.64685       -2.4742514E-04
  -41.59685        1.6308209E-04
  -41.54685        3.1113863E-04
  -41.49685       -1.2290625E-05
  -41.44685       -2.9772657E-04
  -41.39685       -1.2342448E-04
  -41.34685        2.1833871E-04
  -41.29685        2.0940129E-04
  -41.24685       -1.0511430E-04
  -41.19685       -2.3381518E-04
  -41.14685       -8.9594660E-06
  -41.09685        2.0111795E-04
  -41.04685        9.6113909E-05
  -40.99685       -1.2581142E-04
  -40.94685       -1.3026730E-04
  -40.89685        4.3656128E-05
  -40.84685        1.0946106E-04
  -40.79685        5.2715664E-06
  -40.74685       -6.5259628E-05
  -40.69685       -9.9902645E-06
  -40.64685        3.2952095E-05
  -40.59685       -1.2969026E-05
  -40.54685       -2.8317456E-05
  -40.49685        4.3695920E-05
  -40.44685        5.6083292E-05
  -40.39685       -6.2471932E-05
  -40.34685       -1.1576249E-04
  -40.29685        4.0995335E-05
  -40.24685        1.8450139E-04
  -40.19685        3.9693103E-05
  -40.14685       -2.1549004E-04
  -40.09685       -1.5959202E-04
  -40.04685        1.7470196E-04
  -39.99685        2.7025907E-04
  -39.94685       -6.6534085E-05
  -39.89685       -3.3175084E-04
  -39.84685       -8.3033105E-05
  -39.79685        3.2058984E-04
  -39.74685        2.3959481E-04
  -39.69685       -2.2419036E-04
  -39.64685       -3.5282309E-04
  -39.59685        6.0968479E-05
  -39.54685        3.7563394E-04
  -39.49685        1.1097050E-04
  -39.44685       -3.0371305E-04
  -39.39685       -2.3025386E-04
  -39.34685        1.7870542E-04
  -39.29685        2.7164520E-04
  -39.24685       -5.3452375E-05
  -39.19685       -2.4887768E-04
  -39.14685       -3.9905332E-05
  -39.09685        1.8816386E-04
  -39.04685        8.9309418E-05
  -38.99685       -1.1087422E-04
  -38.94685       -8.2890292E-05
  -38.89685        5.2681607E-05
  -38.84685        2.6725642E-05
  -38.79685       -6.2927313E-05
  -38.74685        1.7923663E-05
  -38.69685        1.3751794E-04
  -38.64685        1.6821776E-05
  -38.59685       -1.9813988E-04
  -38.54685       -1.1632458E-04
  -38.49685        1.8745889E-04
  -38.44685        2.1281096E-04
  -38.39685       -1.2462922E-04
  -38.34685       -2.8030627E-04
  -38.29685        3.6455534E-05
  -38.24685        3.2683311E-04
  -38.19685        8.7596505E-05
  -38.14685       -3.2785092E-04
  -38.09685       -2.4109958E-04
  -38.04685        2.4015766E-04
  -37.99685        3.6222959E-04
  -37.94685       -7.1993461E-05
  -37.89685       -3.8424638E-04
  -37.84685       -1.0340638E-04
  -37.79685        3.0571132E-04
  -37.74685        2.1464752E-04
  -37.69685       -1.8606611E-04
  -37.64685       -2.5222142E-04
  -37.59685        7.5368844E-05
  -37.54685        2.4417168E-04
  -37.49685        1.7046241E-05
  -37.44685       -2.0241040E-04
  -37.39685       -8.4096275E-05
  -37.34685        1.3097469E-04
  -37.29685        1.0252937E-04
  -37.24685       -6.1660983E-05
  -37.19685       -7.0487295E-05
  -37.14685        3.7981048E-05
  -37.09685        3.0119860E-05
  -37.04685       -6.5663909E-05
  -36.99685       -3.1403015E-05
  -36.94685        1.0096886E-04
  -36.89685        7.9607817E-05
  -36.84685       -9.8342709E-05
  -36.79685       -1.3602898E-04
  -36.74685        5.6050569E-05
  -36.69685        1.7020910E-04
  -36.64685        2.5835843E-06
  -36.59685       -1.8220533E-04
  -36.54685       -6.9517897E-05
  -36.49685        1.7186807E-04
  -36.44685        1.4377761E-04
  -36.39685       -1.2678480E-04
  -36.34685       -2.0843947E-04
  -36.29685        4.4371503E-05
  -36.24685        2.4074467E-04
  -36.19685        6.3385567E-05
  -36.14685       -2.2245498E-04
  -36.09685       -1.7422075E-04
  -36.04685        1.4027036E-04
  -35.99685        2.4674466E-04
  -35.94685       -9.3332183E-06
  -35.89685       -2.3941533E-04
  -35.84685       -1.1314606E-04
  -35.79685        1.5831731E-04
  -35.74685        1.7275019E-04
  -35.69685       -5.8526461E-05
  -35.64685       -1.6979720E-04
  -35.59685       -1.6369317E-05
  -35.54685        1.3909602E-04
  -35.49685        6.5895707E-05
  -35.44685       -9.5948642E-05
  -35.39685       -9.4425675E-05
  -35.34685        4.1589388E-05
  -35.29685        8.9033223E-05
  -35.24685       -4.0957190E-08
  -35.19685       -5.7492060E-05
  -35.14685       -4.0755758E-06
  -35.09685        3.8282600E-05
  -35.04685       -1.1688232E-05
  -34.99685       -4.9145325E-05
  -34.94685        1.3310959E-05
  -34.89685        7.0444345E-05
  -34.84685        6.1459323E-06
  -34.79685       -8.2774990E-05
  -34.74685       -3.6309088E-05
  -34.69685        8.1287129E-05
  -34.64685        6.8379857E-05
  -34.59685       -6.7311550E-05
  -34.54685       -9.7433185E-05
  -34.49685        4.5307770E-05
  -34.44685        1.2780492E-04
  -34.39685       -7.7739269E-06
  -34.34685       -1.5674917E-04
  -34.29685       -6.2209001E-05
  -34.24685        1.5130194E-04
  -34.19685        1.4724932E-04
  -34.14685       -8.5707434E-05
  -34.09685       -1.9442942E-04
  -34.04685       -1.0247686E-05
  -33.99685        1.8128673E-04
  -33.94685        8.7759254E-05
  -33.89685       -1.3428190E-04
  -33.84685       -1.3599920E-04
  -33.79685        7.4415213E-05
  -33.74685        1.6124756E-04
  -33.69685       -1.7049963E-06
  -33.64685       -1.5077592E-04
  -33.59685       -6.5872482E-05
  -33.54685        9.9855861E-05
  -33.49685        9.3844872E-05
  -33.44685       -4.2050942E-05
  -33.39685       -7.9786019E-05
  -33.34685        1.4589407E-05
  -33.29685        6.0335886E-05
  -33.24685       -1.2409771E-05
  -33.19685       -6.0463077E-05
  -33.14685        6.1425371E-06
  -33.09685        6.8789719E-05
  -33.04685        1.3600362E-05
  -32.99685       -6.8230715E-05
  -32.94685       -3.6978829E-05
  -32.89685        5.6295135E-05
  -32.84685        5.6017045E-05
  -32.79685       -3.6136731E-05
  -32.74685       -6.6270622E-05
  -32.69685        1.3291919E-05
  -32.64685        6.7634799E-05
  -32.59685        7.3004903E-06
  -32.54685       -6.4676220E-05
  -32.49685       -2.7905424E-05
  -32.44685        5.5796150E-05
  -32.39685        4.8321948E-05
  -32.34685       -3.6080997E-05
  -32.29685       -5.8843441E-05
  -32.24685        1.2435215E-05
  -32.19685        5.6232453E-05
  -32.14685        3.6994227E-06
  -32.09685       -5.0558778E-05
  -32.04685       -1.3706924E-05
  -31.99685        4.8300630E-05
  -31.94685        2.5873662E-05
  -31.89685       -4.5110817E-05
  -31.84685       -4.2301890E-05
  -31.79685        3.4432283E-05
  -31.74685        5.8247704E-05
  -31.69685       -1.3379184E-05
  -31.64685       -6.4964377E-05
  -31.59685       -1.3195136E-05
  -31.54685        5.5614033E-05
  -31.49685        3.0883693E-05
  -31.44685       -3.8627277E-05
  -31.39685       -3.2129505E-05
  -31.34685        3.4336052E-05
  -31.29685        3.5569836E-05
  -31.24685       -4.1491949E-05
  -31.19685       -6.3156505E-05
  -31.14685        2.6221371E-05
  -31.09685        9.4290590E-05
  -31.04685        2.5321824E-05
  -30.99685       -8.5470630E-05
  -30.94685       -7.2771159E-05
  -30.89685        4.0375064E-05
  -30.84685        8.0790829E-05
  -30.79685       -2.7026961E-06
  -30.74685       -6.8718793E-05
  -30.69685       -1.6247488E-05
  -30.64685        6.1320199E-05
  -30.59685        3.7449936E-05
  -30.54685       -4.6566627E-05
  -30.49685       -5.8399630E-05
  -30.44685        1.4364691E-05
  -30.39685        5.7827576E-05
  -30.34685        1.6208644E-05
  -30.29685       -3.6830479E-05
  -30.24685       -2.8043245E-05
  -30.19685        1.3371065E-05
  -30.14685        2.3973203E-05
  -30.09685        2.4950125E-06
  -30.04685       -1.2205247E-05
  -29.99685       -9.0989515E-06
  -29.94685       -1.9734262E-06
  -29.89685        6.4375208E-06
  -29.84685        1.4517883E-05
  -29.79685        5.3394874E-06
  -29.74685       -2.0374664E-05
  -29.69685       -2.4397668E-05
  -29.64685        1.2458542E-05
  -29.59685        4.2416468E-05
  -29.54685        1.2917164E-05
  -29.49685       -4.3351101E-05
  -29.44685       -4.4519020E-05
  -29.39685        1.7471035E-05
  -29.34685        5.7594327E-05
  -29.29685        2.0136978E-05
  -29.24685       -4.0607494E-05
  -29.19685       -4.1299423E-05
  -29.14685        1.2296133E-05
  -29.09685        4.0757870E-05
  -29.04685        6.9633334E-06
  -28.99685       -3.6129630E-05
  -28.94685       -2.3912084E-05
  -28.89685        2.9348859E-05
  -28.84685        4.7674002E-05
  -28.79685       -3.7778327E-06
  -28.74685       -6.2002051E-05
  -28.69685       -4.0632614E-05
  -28.64685        4.5306850E-05
  -28.59685        7.9212681E-05
  -28.54685        8.5629637E-08
  -28.49685       -9.0331676E-05
  -28.44685       -5.4760410E-05
  -28.39685        6.9432630E-05
  -28.34685        1.0054214E-04
  -28.29685       -2.0766916E-05
  -28.24685       -1.2151170E-04
  -28.19685       -4.3543369E-05
  -28.14685        1.0594005E-04
  -28.09685        1.0163500E-04
  -28.04685       -5.5836343E-05