  -73.44685        7.3229189E-31
  -73.39685        5.9961699E-31
  -73.34686        2.4038392E-31
  -73.29685        1.1021601E-30
  -73.24685        6.7887540E-31
  -73.19685       -9.5171321E-28
  -73.14685       -2.8878914E-14
  -73.09686        3.6651888E-13
  -73.04685        1.6534696E-12
  -72.99685       -2.1350565E-12
  -72.94685       -2.0266190E-11
  -72.89685       -1.8945037E-11
  -72.84686        8.9911245E-11
  -72.79685        2.3151575E-10
  -72.74685       -4.8988737E-11
  -72.69685       -9.3894925E-10
  -72.64685       -1.0697639E-09
  -72.59686        1.5251486E-09
  -72.54685        4.8189936E-09
  -72.49685        1.5187399E-09
  -72.44685       -1.0132064E-08
  -72.39685       -1.4081952E-08
  -72.34686        8.5315790E-09
  -72.29685        3.9022488E-08
  -72.24685        1.9548844E-08
  -72.19685       -6.3258369E-08
  -72.14685       -1.0305732E-07
  -72.09686        2.5418982E-08
  -72.04685        2.3226694E-07
  -71.99685        1.9422275E-07
  -71.94685       -2.3190013E-07
  -71.89685       -6.0194287E-07
  -71.84686       -2.3443278E-07
  -71.79685        7.7418008E-07
  -71.74685        1.1978881E-06
  -71.69685        9.6595336E-09
  -71.64685       -1.8368116E-06
  -71.59686       -1.8477958E-06
  -71.54685        8.8188324E-07
  -71.49685        3.4990364E-06
  -71.44685        2.0606017E-06
  -71.39685       -2.9470966E-06
  -71.34686       -5.5520991E-06
  -71.29685       -1.1044359E-06
  -71.24685        6.4106707E-06
  -71.19685        7.3325500E-06
  -71.14685       -1.5244601E-06
  -71.09686       -1.0618187E-05
  -71.04685       -7.8889616E-06
  -70.99685        5.3349058E-06
  -70.94685        1.3900568E-05
  -70.89685        6.8345212E-06
  -70.84686       -8.4404182E-06
  -70.79685       -1.4682822E-05
  -70.74685       -5.4654060E-06
  -70.69685        8.5140982E-06
  -70.64685        1.3458982E-05
  -70.59686        6.5644545E-06
  -70.54685       -5.2489077E-06
  -70.49685       -1.3590770E-05
  -70.44685       -1.1800283E-05
  -70.39685        2.2990782E-06
  -70.34686        1.8977897E-05
  -70.29685        1.8712122E-05
  -70.24685       -5.3549006E-06
  -70.19685       -2.9618232E-05
  -70.14685       -2.1570562E-05
  -70.09686        1.6014914E-05
  -70.04685        3.9707254E-05
  -69.99685        1.7410841E-05
  -69.94685       -2.7330772E-05
  -69.89685       -4.2338157E-05
  -69.84686       -1.1777942E-05
  -69.79685        2.7890186E-05
  -69.74685        3.7132355E-05
  -69.69685        1.5323367E-05
  -69.64685       -1.3013968E-05
  -69.59686       -3.0091955E-05
  -69.54685       -2.8491968E-05
  -69.49685       -4.8443003E-06
  -69.44685        2.7334216E-05
  -69.39685        3.4974804E-05
  -69.34686        4.1993840E-06
  -69.29685       -2.8917986E-05
  -69.24685       -1.9831008E-05
  -69.19685        1.7272198E-05
  -69.14685        2.4671346E-05
  -69.09686       -1.1140570E-05
  -69.04685       -3.4787521E-05
  -68.99685       -8.2250972E-06
  -68.94685        2.5845316E-05
  -68.89685        1.0909308E-05
  -68.84686       -2.9697370E-05
  -68.79685       -2.7896331E-05
  -68.74685        1.7810351E-05
  -68.69685        3.7829144E-05
  -68.64685        3.8091885E-06
  -68.59686       -2.7322918E-05
  -68.54685       -9.2931878E-06
  -68.49685        2.1115444E-05
  -68.44685        1.4960105E-05
  -68.39685       -3.9801566E-06
  -68.34686        8.6312793E-06
  -68.29685        2.5134899E-05
  -68.24685       -1.0291062E-05
  -68.19685       -6.7258690E-05
  -68.14685       -5.4075903E-05
  -68.09686        3.6052526E-05
  -68.04685        9.6684671E-05
  -67.99685        5.6489982E-05
  -67.94685       -2.7472033E-05
  -67.89685       -6.8389490E-05
  -67.84686       -6.0846625E-05
  -67.79685       -3.4229055E-05
  -67.74685        2.2084718E-05
  -67.69685        9.8234079E-05
  -67.64685        1.0105548E-04
  -67.59686       -2.4896373E-05
  -67.54685       -1.5537211E-04
  -67.49685       -1.1162362E-04
  -67.44685        7.4026415E-05
  -67.39685        1.7114589E-04
  -67.34686        6.6571083E-05
  -67.29685       -8.6313776E-05
  -67.24685       -1.0811298E-04
  -67.19685       -3.3173746E-05
  -67.14685        1.0284866E-05
  -67.09686        2.3486920E-05
  -67.04685        7.0072747E-05
  -66.99685        8.6872235E-05
  -66.94685       -2.2842469E-05
  -66.89685       -1.5309092E-04
  -66.84686       -9.4966308E-05
  -66.79685        1.1047107E-04
  -66.74685        1.7349965E-04
  -66.69685       -6.4824794E-06
  -66.64685       -1.5946844E-04
  -66.59686       -6.0985625E-05
  -66.54685        1.0776019E-04
  -66.49685        6.3180123E-05
  -66.44685       -1.0304666E-04
  -66.39685       -8.0413054E-05
  -66.34686        1.1790870E-04
  -66.29685        1.5222155E-04
  -66.24685       -7.2112169E-05
  -66.19685       -2.1540227E-04
  -66.14685       -4.1932733E-05
  -66.09686        1.9163136E-04
  -66.04685        1.4271963E-04
  -65.99685       -8.5386993E-05
  -65.94685       -1.4427256E-04
  -65.89685        9.6334225E-07
  -65.84686        8.0237391E-05
  -65.79685        4.3378204E-06
  -65.74685       -3.9071609E-05
  -65.69685        1.9342780E-05
  -65.64685        1.7899782E-05
  -65.59686       -7.2096263E-05
  -65.54685       -4.1556152E-05
  -65.49685        1.3961385E-04
  -65.44685        1.6472647E-04
  -65.39685       -1.0111077E-04
  -65.34686       -2.9100792E-04
  -65.29685       -7.0200971E-05
  -65.24685        2.7184439E-04
  -65.19685        2.1976815E-04
  -65.14685       -1.4446487E-04
  -65.09686       -2.5319206E-04
  -65.04685        3.7854294E-05
  -64.99685        2.3105636E-04
  -64.94685        2.2255112E-05
  -64.89685       -2.0976906E-04
  -64.84686       -6.9968861E-05
  -64.79685        1.8229221E-04
  -64.74685        1.0103465E-04
  -64.69685       -1.6382130E-04
  -64.64685       -1.3124110E-04
  -64.59686        1.5903803E-04
  -64.54685        1.9738908E-04
  -64.49685       -1.1257597E-04
  -64.44685       -2.6572248E-04
  -64.39685       -4.1780795E-06
  -64.34686        2.4638503E-04
  -64.29685        9.8451790E-05
  -64.24685       -1.6007802E-04
  -64.19685       -9.2105831E-05
  -64.14685        1.3612224E-04
  -64.09686        7.9370344E-05
  -64.04685       -1.7898565E-04
  -63.99685       -1.6602679E-04
  -63.94685        1.3851281E-04
  -63.89685        2.4155797E-04
  -63.84685       -2.2870323E-05
  -63.79685       -2.1044712E-04
  -63.74685       -2.9601793E-05
  -63.69685        1.7600338E-04
  -63.64685        4.6271954E-05
  -63.59685       -1.7512179E-04
  -63.54685       -9.1189453E-05
  -63.49685        1.4717881E-04
  -63.44685        1.2403948E-04
  -63.39685       -1.0086627E-04
  -63.34685       -1.1661166E-04
  -63.29685        8.9676549E-05
  -63.24685        1.1712132E-04
  -63.19685       -1.0185977E-04
  -63.14685       -1.5617422E-04
  -63.09685        9.1322196E-05
  -63.04685        2.0722946E-04
  -62.99685       -5.9514608E-05
  -62.94685       -2.7938961E-04
  -62.89685       -4.1188046E-05
  -62.84685        3.0790729E-04
  -62.79685        1.9763992E-04
  -62.74685       -2.0849795E-04
  -62.69685       -2.6677025E-04
  -62.64685        8.2840852E-05
  -62.59685        2.3555686E-04
  -62.54685       -4.5528002E-05
  -62.49685       -2.4441048E-04
  -62.44685        3.4499189E-06
  -62.39685        2.8071209E-04
  -62.34685        1.0657073E-04
  -62.29685       -2.3920012E-04
  -62.24685       -1.9275860E-04
  -62.19685        1.4662750E-04
  -62.14685        2.0775109E-04
  -62.09685       -8.3041719E-05
  -62.04685       -2.1200432E-04
  -61.99685        2.6042188E-05
  -61.94685        2.0519274E-04
  -61.89685        2.9505241E-05
  -61.84685       -1.7470062E-04
  -61.79685       -5.6855679E-05
  -61.74685        1.5424537E-04
  -61.69685        7.9853053E-05
  -61.64685       -1.3980914E-04
  -61.59685       -1.1198361E-04
  -61.54685        1.0666984E-04
  -61.49685        1.2045832E-04
  -61.44685       -9.3097617E-05
  -61.39685       -1.3992618E-04
  -61.34685        8.6554632E-05
  -61.29685        1.9977399E-04
  -61.24685       -1.3478436E-05
  -61.19685       -2.1269982E-04
  -61.14685       -7.7922421E-05
  -61.09685        1.4950558E-04
  -61.04685        8.9918489E-05
  -60.99685       -1.2403187E-04
  -60.94685       -9.2310547E-05
  -60.89685        1.4296362E-04
  -60.84685        1.5984674E-04
  -60.79685       -1.0564320E-04
  -60.74685       -2.2039928E-04
  -60.69685        2.0686399E-05
  -60.64685        2.2642796E-04
  -60.59685        4.5587800E-05
  -60.54685       -2.3511407E-04
  -60.49685       -1.4131365E-04
  -60.44685        2.0677145E-04
  -60.39685        2.6363434E-04
  -60.34685       -7.5314485E-05
  -60.29685       -2.9949381E-04
  -60.24685       -8.0877224E-05
  -60.19685        2.2570971E-04
  -60.14685        1.5701252E-04
  -60.09685       -1.4229491E-04
  -60.04685       -1.8499818E-04
  -59.99685        7.3068841E-05
  -59.94685        1.9104090E-04
  -59.89685       -1.8896189E-05
  -59.84685       -1.8830132E-04
  -59.79685       -1.3264813E-05
  -59.74685        2.2344296E-04
  -59.69685        1.0074297E-04
  -59.64685       -2.3234526E-04
  -59.59685       -2.5501248E-04
  -59.54685        9.9577475E-05
  -59.49685        3.1151177E-04
  -59.44685        7.5341588E-05
  -59.39685       -2.2874313E-04
  -59.34685       -1.4651328E-04
  -59.29685        1.4202234E-04
  -59.24685        1.5231155E-04
  -59.19685       -1.0294648E-04
  -59.14685       -1.6711977E-04
  -59.09685        6.6898305E-05
  -59.04685        1.7901018E-04
  -58.99685       -3.9975042E-05
  -58.94685       -2.1048791E-04
  -58.89685       -1.6481721E-05
  -58.84685        2.2902449E-04
  -58.79685        1.0588991E-04
  -58.74685       -1.8238593E-04
  -58.69685       -1.4884776E-04
  -58.64685        1.3031022E-04
  -58.59685        1.4538020E-04
  -58.54685       -1.3831681E-04
  -58.49685       -1.9439650E-04
  -58.44685        1.2671723E-04
  -58.39685        2.7902264E-04
  -58.34685       -4.5219786E-05
  -58.29685       -3.2504121E-04
  -58.24685       -6.6464701E-05
  -58.19685        3.1587825E-04
  -58.14685        1.6755880E-04
  -58.09685       -2.6983157E-04
  -58.04685       -2.4296677E-04
  -57.99685        2.0555416E-04
  -57.94685        2.8101131E-04
  -57.89685       -1.7235600E-04
  -57.84685       -3.4660171E-04
  -57.79685        1.3130155E-04
  -57.74685        4.6914857E-04
  -57.69685        1.9006880E-05
  -57.64685       -5.4318213E-04
  -57.59685       -2.7264951E-04
  -57.54685        4.3784041E-04
  -57.49685        4.5155306E-04
  -57.44685       -2.3400168E-04
  -57.39685       -4.8093018E-04
  -57.34685        8.2304883E-05
  -57.29685        4.5873065E-04
  -57.24685        3.6451693E-06
  -57.19685       -4.7589955E-04
  -57.14685       -1.2442858E-04
  -57.09685        4.7290072E-04
  -57.04685        2.8550881E-04
  -56.99685       -3.8797132E-04
  -56.94685       -4.1872516E-04
  -56.89685        2.3377026E-04
  -56.84685        4.6937799E-04
  -56.79685       -7.4938449E-05
  -56.74685       -4.4833330E-04
  -56.69685       -4.9804446E-05
  -56.64685        3.8010720E-04
  -56.59685        1.0675486E-04
  -56.54685       -3.2999262E-04
  -56.49685       -1.2946191E-04
  -56.44685        3.2539218E-04
  -56.39685        1.7339762E-04
  -56.34685       -3.4081106E-04
  -56.29685       -2.6692046E-04
  -56.24685        3.2851694E-04
  -56.19685        3.9867128E-04
  -56.14685       -2.5353825E-04
  -56.09685       -5.4621359E-04
  -56.04685        6.0674894E-05
  -55.99685        5.9375359E-04
  -55.94685        1.7556098E-04
  -55.89685       -4.9208623E-04
  -55.84685       -3.1486599E-04
  -55.79685        3.5286829E-04
  -55.74685        3.5100366E-04
  -55.69685       -2.8673833E-04
  -55.64685       -4.1807818E-04
  -55.59685        2.0891728E-04
  -55.54685        5.0929625E-04
  -55.49685       -6.1931001E-05
  -55.44685       -5.5187044E-04
  -55.39685       -1.2796445E-04
  -55.34685        5.0109805E-04
  -55.29685        2.8900194E-04
  -55.24685       -3.8598431E-04
  -55.19685       -3.8925823E-04
  -55.14685        2.5024248E-04
  -55.09685        4.3328243E-04
  -55.04685       -1.2498922E-04
  -54.99685       -4.5263677E-04
  -54.94685       -1.0237775E-05
  -54.89685        4.2050594E-04
  -54.84685        1.1684449E-04
  -54.79685       -3.6359386E-04
  -54.74685       -1.8688021E-04
  -54.69685        3.1779634E-04
  -54.64685        2.5634025E-04
  -54.59685       -2.7276512E-04
  -54.54685       -3.5322600E-04
  -54.49685        1.6839567E-04
  -54.44685        4.1625486E-04
  -54.39685       -2.8642206E-05
  -54.34685       -4.2734359E-04
  -54.29685       -1.3008348E-04
  -54.24685        3.5709015E-04
  -54.19685        2.4799604E-04
  -54.14685       -2.3040922E-04
  -54.09685       -2.7544846E-04
  -54.04685        1.3643689E-04
  -53.99685        2.6460248E-04
  -53.94685       -1.0924257E-04
  -53.89685       -3.2791134E-04
  -53.84685        6.8628869E-06
  -53.79685        3.5873364E-04
  -53.74685        1.5530401E-04
  -53.69685       -2.7031623E-04
  -53.64685       -2.4542003E-04
  -53.59685        1.4802997E-04
  -53.54685        2.5044489E-04
  -53.49685       -7.8438745E-05
  -53.44685       -2.6827716E-04
  -53.39685       -1.0350366E-05
  -53.34685        2.5343691E-04
  -53.29685        9.5726973E-05
  -53.24685       -1.9631468E-04
  -53.19685       -1.3526925E-04
  -53.14685        1.4411860E-04
  -53.09685        1.4102920E-04
  -53.04685       -1.3619817E-04
  -52.99685       -1.7991124E-04
  -52.94685        1.2557143E-04
  -52.89685        2.5840051E-04
  -52.84685       -6.7803507E-05
  -52.79685       -3.5813404E-04
  -52.74685       -1.0215086E-04
  -52.69685        3.4976623E-04
  -52.64685        2.8776328E-04
  -52.59685       -2.1297949E-04
  -52.54685       -3.7325924E-04
  -52.49685        4.8858539E-05
  -52.44685        3.5637189E-04
  -52.39685        4.5824101E-05
  -52.34685       -3.5524086E-04
  -52.29685       -1.5100790E-04
  -52.24685        3.4695645E-04
  -52.19685        2.9761819E-04
  -52.14685       -2.7120946E-04
  -52.09685       -4.5509942E-04
  -52.04685        7.0814844E-05
  -51.99685        4.9801031E-04
  -51.94685        1.6795048E-04
  -51.89685       -3.8399288E-04
  -51.84685       -3.1434593E-04
  -51.79685        1.8963496E-04
  -51.74685        2.9430786E-04
  -51.69685       -9.0539936E-05
  -51.64685       -2.4814613E-04
  -51.59685        6.8986374E-05
  -51.54685        2.5343691E-04
  -51.49685       -4.1732696E-05
  -51.44685       -2.8573940E-04
  -51.39685       -2.9469911E-05
  -51.34685        2.7687132E-04
  -51.29685        7.8152298E-05
  -51.24685       -2.7755019E-04
  -51.19685       -1.3662242E-04
  -51.14685        2.7468795E-04
  -51.09685        2.0614474E-04
  -51.04685       -2.7264631E-04
  -50.99685       -3.2071449E-04
  -50.94685        2.1285457E-04
  -50.89685        4.4197665E-04
  -50.84685       -7.4864241E-05
  -50.79685       -5.1638926E-04
  -50.74685       -1.3187002E-04
  -50.69685        4.6575992E-04
  -50.64685        2.8546131E-04
  -50.59685       -3.7454773E-04
  -50.54685       -4.0355348E-04
  -50.49685        2.5756590E-04
  -50.44685        5.0064712E-04
  -50.39685       -9.6736410E-05
  -50.34685       -5.5599242E-04
  -50.29685       -1.2435445E-04
  -50.24685        4.8395176E-04
  -50.19685        2.9012459E-04
  -50.14685       -3.4742948E-04
  -50.09685       -3.8313461E-04
  -50.04685        1.8114454E-04
  -49.99685        3.8146455E-04
  -49.94685       -5.8722049E-05
  -49.89685       -3.4282726E-04
  -49.84685       -2.2599637E-05
  -49.79685        2.8633649E-04
  -49.74685        4.8341793E-05
  -49.69685       -2.7067514E-04
  -49.64685       -8.3513303E-05
  -49.59685        2.6053740E-04
  -49.54685        1.1830878E-04
  -49.49685       -2.7433652E-04
  -49.44685       -2.0369924E-04
  -49.39685        2.4244102E-04
  -49.34685        2.9134264E-04
  -49.29685       -1.6760464E-04
  -49.24685       -3.5862412E-04
  -49.19685        5.1687923E-05
  -49.14685        3.6143864E-04
  -49.09685        3.0399331E-05
  -49.04685       -3.7632216E-04
  -48.99685       -1.4206475E-04
  -48.94685        3.5999806E-04
  -48.89685        2.7356172E-04
  -48.84685       -2.8880188E-04
  -48.79685       -4.0942666E-04
  -48.74685        1.1321779E-04
  -48.69685        4.3313738E-04
  -48.64685        5.6913519E-05
  -48.59685       -3.7181308E-04
  -48.54685       -1.7375685E-04
  -48.49685        2.6500190E-04
  -48.44685        2.0097742E-04
  -48.39685       -2.1460475E-04
  -48.34685       -2.4586861E-04
  -48.29685        1.5355719E-04
  -48.24685        2.8778339E-04
  -48.19685       -7.3017072E-05
  -48.14685       -3.1376362E-04
  -48.09685       -4.0443803E-05
  -48.04685        2.6208887E-04
  -47.99685        8.5290747E-05
  -47.94685       -2.3493229E-04
  -47.89685       -1.2282770E-04
  -47.84685        2.2633704E-04
  -47.79685        1.8166889E-04
  -47.74685       -2.1946678E-04
  -47.69685       -3.0591761E-04
  -47.64685        9.3477640E-05
  -47.59685        3.4273780E-04
  -47.54685        5.0101255E-05
  -47.49685       -2.9041740E-04
  -47.44685       -1.3729295E-04
  -47.39685        2.0715019E-04
  -47.34685        1.4196891E-04
  -47.29685       -2.0567239E-04
  -47.24685       -2.1658518E-04
  -47.19685        1.4917487E-04
  -47.14685        2.8196542E-04
  -47.09685       -4.0720119E-05
  -47.04685       -2.8625465E-04
  -46.99685       -7.6335753E-05
  -46.94685        1.9708693E-04
  -46.89685        7.9749836E-05
  -46.84685       -1.7054330E-04
  -46.79685       -7.8293779E-05
  -46.74685        1.8539208E-04
  -46.69685        1.0810466E-04
  -46.64685       -2.2207675E-04
  -46.59685       -2.2545546E-04
  -46.54685        1.5062804E-04
  -46.49685        2.8842661E-04
  -46.44685       -5.5867513E-05
  -46.39685       -3.0651406E-04
  -46.34685       -3.7952090E-05
  -46.29685        2.8023199E-04
  -46.24685        7.8505866E-05
  -46.19685       -3.1096456E-04
  -46.14685       -1.9602315E-04
  -46.09685        2.7291410E-04
  -46.04685        3.1361132E-04
  -45.99685       -1.6957243E-04
  -45.94685       -3.9589597E-04
  -45.89685       -3.9939837E-06
  -45.84685        3.4757351E-04
  -45.79685        9.4649593E-05
  -45.74685       -2.9779793E-04
  -45.69685       -1.5824909E-04
  -45.64685        2.4383636E-04
  -45.59685        1.9146250E-04
  -45.54685       -2.2601134E-04
  -45.49685       -2.7798826E-04
  -45.44685        1.2732105E-04
  -45.39685        2.8817981E-04
  -45.34685       -5.8050602E-05
  -45.29685       -2.8280311E-04
  -45.24685        1.1857430E-05
  -45.19685        2.7995170E-04
  -45.14685        2.8770821E-06
  -45.09685       -3.5825357E-04
  -45.04685       -1.4160697E-04
  -44.99685        3.3184700E-04
  -44.94685        2.6562871E-04
  -44.89685       -2.4273783E-04
  -44.84685       -3.4572044E-04
  -44.79685        1.1060447E-04
  -44.74685        3.2819324E-04
  -44.69685       -6.0230926E-05
  -44.64685       -3.5924275E-04
  -44.59685       -2.9209696E-05
  -44.54685        3.6195296E-04
  -44.49685        1.1848836E-04
  -44.44685       -3.6498418E-04
  -44.39685       -2.6793272E-04
  -44.34685        2.4879386E-04
  -44.29685        3.2222338E-04
  -44.24685       -1.3907927E-04
  -44.19685       -3.3167016E-04
  -44.14685        3.7744987E-05
  -44.09685        2.7949951E-04
  -44.04685       -3.1146978E-05
  -43.99685       -3.1139681E-04
  -43.94685       -3.3311058E-05
  -43.89685        3.1391182E-04
  -43.84685        8.8721208E-05
  -43.79685       -3.3603053E-04
  -43.74685       -2.0176949E-04
  -43.69685        2.8152758E-04
  -43.64685        2.6315593E-04
  -43.59685       -2.5341276E-04
  -43.54685       -3.6867263E-04
  -43.49685        1.5816465E-04
  -43.44685        4.3852619E-04
  -43.39685       -4.9085524E-05
  -43.34685       -5.2517519E-04
  -43.29685       -1.8321240E-04
  -43.24685        4.4295029E-04
  -43.19685        3.4307278E-04
  -43.14685       -3.0287128E-04
  -43.09685       -4.4047637E-04
  -43.04685        1.1258338E-04
  -42.99685        4.1100499E-04
  -42.94685       -1.4986739E-05
  -42.89685       -4.1817632E-04
  -42.84685       -1.3265522E-04
  -42.79685        3.3741916E-04
  -42.74685        2.1868161E-04
  -42.69685       -2.5193687E-04
  -42.64685       -2.9772226E-04
  -42.59685        9.1006405E-05
  -42.54685        2.3488964E-04
  -42.49685       -3.8247490E-05
  -42.44685       -1.8578718E-04
  -42.39685        2.3079399E-05
  -42.34685        1.3480733E-04
  -42.29685       -9.7620912E-05
  -42.24685       -2.3178010E-04
  -42.19685        4.4063698E-05
  -42.14685        2.8032582E-04
  -42.09685        2.3456738E-05
  -42.04685       -3.3363194E-04
  -41.99685       -1.6611400E-04
  -41.94685        2.8448040E-04
  -41.89685        2.5251627E-04
  -41.84685       -2.5637983E-04
  -41.79685       -4.0892255E-04
  -41.74685        9.0056012E-05
  -41.69685        4.5763748E-04
  -41.64685        7.8319768E-05
  -41.59685       -4.6870857E-04
  -41.54685       -3.1253122E-04
  -41.49685        3.0697585E-04
  -41.44685        4.1281260E-04
  -41.39685       -1.5087663E-04
  -41.34685       -4.8240856E-04
  -41.29685       -7.1372640E-05
  -41.24685        4.0670368E-04
  -41.19685        1.9601760E-04
  -41.14685       -3.4474855E-04
  -41.09685       -3.5301791E-04
  -41.04685        1.5941252E-04
  -40.99685        3.6995718E-04
  -40.94685       -2.2869592E-05
  -40.89685       -3.6722628E-04
  -40.84685       -1.4677660E-04
  -40.79685        2.3154887E-04
  -40.74685        1.6842160E-04
  -40.69685       -1.6727755E-04
  -40.64685       -2.0184770E-04
  -40.59685        6.6928944E-05
  -40.54685        1.3635303E-04
  -40.49685       -9.1208924E-05
  -40.44685       -1.6766494E-04
  -40.39685        6.2026753E-05
  -40.34685        1.6157652E-04
  -40.29685       -9.8328914E-05
  -40.24685       -2.6898106E-04
  -40.19685        9.8263999E-06
  -40.14685        3.0467217E-04
  -40.09685        6.6108740E-05
  -40.04685       -3.7647589E-04
  -39.99685       -2.7364009E-04
  -39.94685        2.7069848E-04
  -39.89685        3.7678555E-04
  -39.84685       -1.7137952E-04
  -39.79685       -4.9660506E-04
  -39.74685       -3.9078895E-05
  -39.69685        4.7171419E-04
  -39.64685        1.7454938E-04
  -39.59685       -4.7509884E-04
  -39.54685       -4.0593417E-04
  -39.49685        2.9948965E-04
  -39.44685        5.0091121E-04
  -39.39685       -1.3655363E-04
  -39.34685       -5.7967007E-04
  -39.29685       -1.2166206E-04
  -39.24685        4.6441943E-04
  -39.19685        2.2500500E-04
  -39.14685       -4.0136356E-04
  -39.09685       -3.5684838E-04
  -39.04685        2.5192060E-04
  -38.99685        3.6981129E-04
  -38.94685       -1.9602133E-04
  -38.89685       -4.6602674E-04
  -38.84685        1.8900411E-05
  -38.79685        4.1934004E-04
  -38.74685        5.4640688E-05
  -38.69685       -4.3022781E-04
  -38.64685       -1.9494620E-04
  -38.59685        3.3677954E-04
  -38.54685        2.2128840E-04
  -38.49685       -3.4954367E-04
  -38.44685       -3.6841654E-04
  -38.39685        2.2601758E-04
  -38.34685        4.1028665E-04
  -38.29685       -1.5890876E-04
  -38.24685       -5.1895116E-04
  -38.19685       -3.9190189E-05
  -38.14685        4.7203258E-04
  -38.09685        1.2895702E-04
  -38.04685       -5.0089665E-04
  -37.99685       -3.3805889E-04
  -37.94685        3.6581568E-04
  -37.89685        4.3017187E-04
  -37.84685       -2.6277613E-04
  -37.79685       -5.6250719E-04
  -37.74685        1.4457248E-05
  -37.69685        4.8484877E-04
  -37.64685        7.3963944E-05
  -37.59685       -4.9050304E-04
  -37.54685       -2.4300035E-04
  -37.49685        3.7799965E-04
  -37.44685        2.9841840E-04
  -37.39685       -3.5212660E-04
  -37.34685       -4.6824187E-04
  -37.29685        1.4741909E-04
  -37.24685        4.5859884E-04
  -37.19685       -4.2547883E-05
  -37.14685       -4.9580733E-04
  -37.09685       -1.5280258E-04
  -37.04685        3.7070210E-04
  -36.99685        1.7720046E-04
  -36.94685       -3.8174313E-04
  -36.89685       -3.3093907E-04
  -36.84685        2.4996075E-04
  -36.79685        3.6702325E-04
  -36.74685       -1.8896043E-04
  -36.69685       -4.8792982E-04
  -36.64685       -3.7782043E-05
  -36.59685        3.9533287E-04
  -36.54685        9.5368479E-05
  -36.49685       -4.0553586E-04
  -36.44685       -2.5301371E-04
  -36.39685        2.7975708E-04
  -36.34685        2.7292717E-04
  -36.29685       -2.6985802E-04
  -36.24685       -4.2908805E-04
  -36.19685        7.2353745E-05
  -36.14685        4.0029679E-04
  -36.09685        1.0422529E-05
  -36.04685       -4.4645293E-04
  -35.99685       -2.2178878E-04
  -35.94685        2.9016074E-04
  -35.89685        2.3574641E-04
  -35.84685       -2.6817661E-04
  -35.79685       -3.5702001E-04
  -35.74685        1.1154302E-04
  -35.69685        3.2620042E-04
  -35.64685       -9.4989555E-05
  -35.59685       -4.4810583E-04
  -35.54685       -1.2293200E-04
  -35.49685        3.6034847E-04
  -35.44685        2.0239821E-04
  -35.39685       -3.4629976E-04
  -35.34685       -3.9169041E-04
  -35.29685        1.3210485E-04
  -35.24685        3.6078444E-04
  -35.19685       -7.2737719E-05
  -35.14685       -4.4596134E-04
  -35.09685       -1.5142676E-04
  -35.04685        3.1172665E-04
  -34.99685        1.8485198E-04
  -34.94685       -2.9857416E-04
  -34.89685       -3.2938382E-04
  -34.84685        1.2119212E-04
  -34.79685        2.7704961E-04
  -34.74685       -1.2326457E-04
  -34.69685       -3.9429034E-04
  -34.64685       -7.1700444E-05
  -34.59685        3.0294442E-04
  -34.54685        1.0155785E-04
  -34.49685       -3.3054597E-04
  -34.44685       -2.6741921E-04
  -34.39685        1.6536095E-04
  -34.34685        2.1602266E-04
  -34.29685       -1.9810861E-04
  -34.24685       -3.4606195E-04
  -34.19685        4.9293114E-05
  -34.14685        3.0705309E-04
  -34.09685       -5.0742143E-05
  -34.04685       -4.4083077E-04
  -33.99685       -1.7823114E-04
  -33.94685        3.3119987E-04
  -33.89685        2.2767614E-04
  -33.84685       -3.4531800E-04
  -33.79685       -4.3546455E-04
  -33.74685        1.2920721E-04
  -33.69685        4.1388790E-04
  -33.64685       -7.9106678E-05
  -33.59685       -5.4946105E-04
  -33.54685       -2.0301835E-04
  -33.49685        4.1264616E-04
  -33.44685        2.8615713E-04
  -33.39685       -3.8686837E-04
  -33.34685       -5.1282690E-04
  -33.29685        1.0477364E-04
  -33.24685        4.5020416E-04
  -33.19685       -2.5888994E-05
  -33.14685       -5.2042090E-04
  -33.09685       -2.2906126E-04
  -33.04685        3.3744506E-04
  -32.99685        2.3781596E-04
  -32.94685       -3.3754352E-04
  -32.89685       -4.2575662E-04
  -32.84685        9.1444490E-05
  -32.79685        3.3679197E-04
  -32.74685       -6.2247498E-05
  -32.69685       -3.9322776E-04
  -32.64685       -1.2052098E-04
  -32.59685        2.2595467E-04
  -32.54685        2.6867183E-05
  -32.49685       -3.3650390E-04
  -32.44685       -1.8057649E-04
  -32.39685        2.4106055E-04
  -32.34685        1.6001366E-04
  -32.29685       -3.3233667E-04
  -32.24685       -3.8502138E-04
  -32.19685        1.3820926E-04
  -32.14685        3.5935472E-04
  -32.09685       -1.3455727E-04
  -32.04685       -5.3199456E-04
  -31.99685       -1.3259564E-04
  -31.94685        4.2698500E-04
  -31.89685        1.8863955E-04
  -31.84685       -4.9981161E-04
  -31.79685       -5.0257280E-04
  -31.74685        2.2495586E-04
  -31.69685        5.1749294E-04
  -31.64685       -1.0523702E-04
  -31.59685       -6.4235344E-04
  -31.54685       -2.4448120E-04
  -31.49685        4.1102388E-04
  -31.44685        2.5863078E-04
  -31.39685       -4.1049960E-04
  -31.34685       -4.7363105E-04
  -31.29685        1.5089744E-04
  -31.24685        4.0611986E-04
  -31.19685       -1.1956542E-04
  -31.14685       -5.3628959E-04
  -31.09685       -1.7151832E-04
  -31.04685        3.3260786E-04
  -30.99685        1.4660915E-04
  -30.94685       -3.6493118E-04
  -30.89685       -3.2454854E-04
  -30.84685        1.5282480E-04
  -30.79685        2.1118901E-04
  -30.74685       -2.3689240E-04
  -30.69685       -3.8076786E-04
  -30.64685        4.3262222E-05
  -30.59685        2.8043392E-04
  -30.54685       -1.0729001E-04
  -30.49685       -4.4378277E-04
  -30.44685       -1.1208887E-04
  -30.39685        3.2759388E-04
  -30.34685        7.5019576E-05
  -30.29685       -4.8429068E-04
  -30.24685       -3.7483830E-04
  -30.19685        2.8318434E-04
  -30.14685        3.9909407E-04
  -30.09685       -2.6390911E-04
  -30.04685       -6.3494092E-04
  -29.99685       -9.4715971E-05
  -29.94685        4.7109273E-04
  -29.89685        1.3002101E-04
  -29.84685       -5.4060190E-04
  -29.79685       -4.1845202E-04
  -29.74685        2.8352617E-04
  -29.69685        3.8008171E-04
  -29.64685       -2.9160833E-04
  -29.59685       -6.0395640E-04
  -29.54685       -3.9301020E-05
  -29.49685        4.5067471E-04
  -29.44685        5.7844969E-05
  -29.39685       -5.3816795E-04
  -29.34685       -3.4381542E-04
  -29.29685        2.8005667E-04
  -29.24685        2.6973005E-04
  -29.19685       -3.2832951E-04
  -29.14685       -4.7583957E-04
  -29.09685        6.0548144E-05
  -29.04685        3.3498733E-04
  -28.99685       -1.2175419E-04
  -28.94685       -4.9971946E-04
  -28.89685       -1.3453003E-04
  -28.84685        3.2961820E-04
  -28.79685        6.4815416E-05
  -28.74685       -4.8053122E-04
  -28.69685       -3.4118863E-04
  -28.64685        2.7431169E-04
  -28.59685        3.0342821E-04
  -28.54685       -3.4190336E-04
  -28.49685       -5.8138452E-04
  -28.44685        7.8709390E-06
  -28.39685        4.4624723E-04
  -28.34685       -5.9696572E-06
  -28.29685       -5.8704091E-04
  -28.24685       -3.1333408E-04
  -28.19685        3.5174037E-04
  -28.14685        2.7576782E-04
  -28.09685       -4.2402121E-04
  -28.04685       -5.7242304E-04