  -73.44685        6.9004072E-31
  -73.39685        4.7694654E-31
  -73.34686        3.7575626E-32
  -73.29685        7.5373972E-31
  -73.24685        2.6776837E-31
  -73.19685       -9.3852503E-31
  -73.14685        5.6300102E-21
  -73.09686        8.8132872E-15
  -73.04685        2.5112684E-14
  -72.99685       -1.4742350E-13
  -72.94685       -6.7801022E-13
  -72.89685        2.0572092E-13
  -72.84686        5.6507598E-12
  -72.79685        7.8869472E-12
  -72.74685       -1.7545805E-11
  -72.69685       -6.0200303E-11
  -72.64685       -1.3039900E-11
  -72.59686        1.8918225E-10
  -72.54685        2.6788810E-10
  -72.49685       -2.1186301E-10
  -72.44685       -8.9106938E-10
  -72.39685       -4.3276580E-10
  -72.34686        1.3941617E-09
  -72.29685        2.0238800E-09
  -72.24685       -6.5519862E-10
  -72.19685       -3.3632728E-09
  -72.14685       -1.0688077E-09
  -72.09686        2.9274345E-09
  -72.04685        1.8387690E-10
  -71.99685       -4.3007020E-09
  -71.94685        5.6080314E-09
  -71.89685        1.9860158E-08
  -71.84686       -3.0728242E-09
  -71.79685       -5.8033947E-08
  -71.74685       -4.5930541E-08
  -71.69685        8.7631932E-08
  -71.64685        1.7466236E-07
  -71.59686       -1.4761014E-08
  -71.54685       -3.3312304E-07
  -71.49685       -2.5669070E-07
  -71.44685        3.4272989E-07
  -71.39685        6.8440499E-07
  -71.34686        4.7201727E-09
  -71.29685       -1.0142248E-06
  -71.24685       -7.4749198E-07
  -71.19685        8.9504027E-07
  -71.14685        1.6398493E-06
  -71.09686       -1.0502610E-07
  -71.04685       -2.2218194E-06
  -70.99685       -1.2641221E-06
  -70.94685        2.0415296E-06
  -70.89685        2.7860904E-06
  -70.84686       -9.1729095E-07
  -70.79685       -3.9135507E-06
  -70.74685       -1.0053415E-06
  -70.69685        4.2132719E-06
  -70.64685        3.4297184E-06
  -70.59686       -3.3190970E-06
  -70.54685       -5.8976270E-06
  -70.49685        8.9728070E-07
  -70.44685        7.5660496E-06
  -70.39685        2.9860703E-06
  -70.34686       -7.3455553E-06
  -70.29685       -7.5136782E-06
  -70.24685        4.3893851E-06
  -70.19685        1.1085006E-05
  -70.14685        1.3343889E-06
  -70.09686       -1.1521137E-05
  -70.04685       -8.1467870E-06
  -69.99685        7.3351821E-06
  -69.94685        1.2545599E-05
  -69.89685        1.0508882E-07
  -69.84686       -1.1653626E-05
  -69.79685       -6.6098960E-06
  -69.74685        6.1651253E-06
  -69.69685        8.4484200E-06
  -69.64685        1.3941801E-08
  -69.59686       -5.1671041E-06
  -69.54685       -2.6038549E-06
  -69.49685       -2.2290908E-07
  -69.44685       -4.5044985E-07
  -69.39685        2.6429734E-06
  -69.34686        6.8933882E-06
  -69.29685        1.5521103E-06
  -69.24685       -1.0684921E-05
  -69.19685       -1.0460580E-05
  -69.14685        7.3645324E-06
  -69.09686        1.8060859E-05
  -69.04685        1.8221542E-06
  -68.99685       -2.0383837E-05
  -68.94685       -1.3284395E-05
  -68.89685        1.6608343E-05
  -68.84686        2.4706645E-05
  -68.79685       -5.1654579E-06
  -68.74685       -3.1460761E-05
  -68.69685       -1.3574392E-05
  -68.64685        2.5894658E-05
  -68.59686        3.0924046E-05
  -68.54685       -6.9810999E-06
  -68.49685       -3.5488578E-05
  -68.44685       -1.5416263E-05
  -68.39685        2.4947763E-05
  -68.34686        3.0587820E-05
  -68.29685       -4.9956448E-06
  -68.24685       -3.3423810E-05
  -68.19685       -1.7477034E-05
  -68.14685        2.1335767E-05
  -68.09686        3.2733758E-05
  -68.04685        2.4314547E-06
  -67.99685       -3.0631538E-05
  -67.94685       -2.4450776E-05
  -67.89685        1.2318623E-05
  -67.84686        3.1757594E-05
  -67.79685        9.6224321E-06
  -67.74685       -2.3039676E-05
  -67.69685       -2.3200173E-05
  -67.64685        5.7656443E-06
  -67.59686        2.2740374E-05
  -67.54685        8.8415327E-06
  -67.49685       -1.1146873E-05
  -67.44685       -1.1663048E-05
  -67.39685       -3.4338953E-07
  -67.34686        4.8376519E-06
  -67.29685        4.6258619E-06
  -67.24685        4.3719401E-06
  -67.19685       -3.1417892E-06
  -67.14685       -1.5281264E-05
  -67.09686       -7.2493044E-06
  -67.04685        2.3563276E-05
  -66.99685        3.0379311E-05
  -66.94685       -1.5292566E-05
  -66.89685       -5.4858523E-05
  -66.84686       -1.4808649E-05
  -66.79685        6.2524457E-05
  -66.74685        5.6407753E-05
  -66.69685       -4.2877135E-05
  -66.64685       -9.1328548E-05
  -66.59686       -3.3629708E-06
  -66.54685        9.7776654E-05
  -66.49685        5.5925280E-05
  -66.44685       -6.9175418E-05
  -66.39685       -8.5659056E-05
  -66.34686        2.8052946E-05
  -66.29685        8.8003457E-05
  -66.24685        2.9191033E-06
  -66.19685       -7.9901736E-05
  -66.14685       -2.3704712E-05
  -66.09686        6.9891423E-05
  -66.04685        3.8617203E-05
  -65.99685       -6.0461090E-05
  -65.94685       -5.0732720E-05
  -65.89685        5.3737516E-05
  -65.84686        6.7932873E-05
  -65.79685       -4.0033061E-05
  -65.74685       -8.4913299E-05
  -65.69685        1.5241727E-05
  -65.64685        8.8546927E-05
  -65.59686        5.1942516E-06
  -65.54685       -8.7970177E-05
  -65.49685       -1.8726621E-05
  -65.44685        9.7445154E-05
  -65.39685        4.4994609E-05
  -65.34686       -1.0457432E-04
  -65.29685       -9.0475805E-05
  -65.24685        8.6863729E-05
  -65.19685        1.3722666E-04
  -65.14685       -3.8414546E-05
  -65.09686       -1.6116101E-04
  -65.04685       -2.5962227E-05
  -64.99685        1.4979037E-04
  -64.94685        7.9797566E-05
  -64.89685       -1.1466306E-04
  -64.84686       -1.0839970E-04
  -64.79685        8.1166523E-05
  -64.74685        1.2651953E-04
  -64.69685       -5.2702173E-05
  -64.64685       -1.5183391E-04
  -64.59686        3.6872107E-06
  -64.54685        1.6232480E-04
  -64.49685        6.6374989E-05
  -64.44685       -1.2465758E-04
  -64.39685       -1.1007759E-04
  -64.34686        6.0623330E-05
  -64.29685        1.0091304E-04
  -64.24685       -2.4065876E-05
  -64.19685       -7.3115028E-05
  -64.14685        2.8670067E-05
  -64.09686        7.2673938E-05
  -64.04685       -3.9079332E-05
  -63.99685       -1.0629565E-04
  -63.94685        1.2480557E-05
  -63.89685        1.3216896E-04
  -63.84685        4.7065103E-05
  -63.79685       -1.1147961E-04
  -63.74685       -8.8600485E-05
  -63.69685        6.8211142E-05
  -63.64685        9.4831907E-05
  -63.59685       -4.3265489E-05
  -63.54685       -1.0159227E-04
  -63.49685        2.3737875E-05
  -63.44685        1.2239181E-04
  -63.39685        2.4018595E-05
  -63.34685       -1.2111531E-04
  -63.29685       -8.8789537E-05
  -63.24685        6.7699468E-05
  -63.19685        1.1838236E-04
  -63.14685        1.0168913E-05
  -63.09685       -8.6593536E-05
  -63.04685       -5.4665779E-05
  -62.99685        2.8751201E-05
  -62.94685        4.8040718E-05
  -62.89685        6.2036861E-06
  -62.84685       -2.3184715E-05
  -62.79685       -1.0049552E-05
  -62.74685        1.5888421E-05
  -62.69685        1.5423080E-05
  -62.64685       -1.8390107E-05
  -62.59685       -4.3931810E-05
  -62.54685       -9.5021051E-06
  -62.49685        6.1050872E-05
  -62.44685        6.6897344E-05
  -62.39685       -2.5630436E-05
  -62.34685       -9.8013588E-05
  -62.29685       -3.8071095E-05
  -62.24685        7.2494200E-05
  -62.19685        6.9300906E-05
  -62.14685       -3.0613544E-05
  -62.09685       -5.5132954E-05
  -62.04685        2.7601105E-05
  -61.99685        5.0928124E-05
  -61.94685       -4.8700640E-05
  -61.89685       -9.4622723E-05
  -61.84685        2.8236545E-05
  -61.79685        1.4043965E-04
  -61.74685        4.4570133E-05
  -61.69685       -1.2774381E-04
  -61.64685       -1.0885989E-04
  -61.59685        6.6517779E-05
  -61.54685        1.1788846E-04
  -61.49685       -1.6333977E-05
  -61.44685       -9.3073315E-05
  -61.39685        6.8528507E-06
  -61.34685        8.5420601E-05
  -61.29685       -5.8190585E-06
  -61.24685       -9.9884666E-05
  -61.19685       -1.9390107E-05
  -61.14685        9.9910321E-05
  -61.09685        4.9744791E-05
  -61.04685       -7.8043515E-05
  -60.99685       -5.8045076E-05
  -60.94685        6.3074098E-05
  -60.89685        5.6124423E-05
  -60.84685       -6.7092929E-05
  -60.79685       -7.0462607E-05
  -60.74685        6.9179921E-05
  -60.69685        1.0172831E-04
  -60.64685       -4.8335060E-05
  -60.59685       -1.2766097E-04
  -60.54685        7.5768453E-06
  -60.49685        1.3031773E-04
  -60.44685        3.3775414E-05
  -60.39685       -1.1009102E-04
  -60.34685       -5.8361326E-05
  -60.29685        8.1518272E-05
  -60.24685        6.2626699E-05
  -60.19685       -5.8203485E-05
  -60.14685       -4.9861068E-05
  -60.09685        5.2654777E-05
  -60.04685        2.9584153E-05
  -59.99685       -7.8688128E-05
  -59.94685       -3.1751384E-05
  -59.89685        1.2240319E-04
  -59.84685        7.8943776E-05
  -59.79685       -1.4426211E-04
  -59.74685       -1.5484692E-04
  -59.69685        1.2430393E-04
  -59.64685        2.3311550E-04
  -59.59685       -6.2243984E-05
  -59.54685       -2.9476310E-04
  -59.49685       -4.0035873E-05
  -59.44685        3.1462984E-04
  -59.39685        1.6385569E-04
  -59.34685       -2.7493120E-04
  -59.29685       -2.7442290E-04
  -59.24685        1.8196987E-04
  -59.19685        3.4058167E-04
  -59.14685       -6.3244144E-05
  -59.09685       -3.5001844E-04
  -59.04685       -4.4753346E-05
  -58.99685        3.1963733E-04
  -58.94685        1.2397468E-04
  -58.89685       -2.7681506E-04
  -58.84685       -1.8368755E-04
  -58.79685        2.2892948E-04
  -58.74685        2.3069137E-04
  -58.69685       -1.7545465E-04
  -58.64685       -2.6202522E-04
  -58.59685        1.2805585E-04
  -58.54685        2.9201072E-04
  -58.49685       -8.3067374E-05
  -58.44685       -3.3693845E-04
  -58.39685        9.9083727E-06
  -58.34685        3.7491255E-04
  -58.29685        1.0083206E-04
  -58.24685       -3.7040218E-04
  -58.19685       -2.2174766E-04
  -58.14685        3.1694755E-04
  -58.09685        3.2740252E-04
  -58.04685       -2.2384110E-04
  -57.99685       -4.0383526E-04
  -57.94685        1.0035589E-04
  -57.89685        4.3742082E-04
  -57.84685        3.6900012E-05
  -57.79685       -4.2183031E-04
  -57.74685       -1.6918362E-04
  -57.69685        3.5649230E-04
  -57.64685        2.7500791E-04
  -57.59685       -2.4806461E-04
  -57.54685       -3.2502241E-04
  -57.49685        1.3270044E-04
  -57.44685        3.1647101E-04
  -57.39685       -5.6402339E-05
  -57.34685       -2.9599451E-04
  -57.29685        1.2761469E-05
  -57.24685        2.9759493E-04
  -57.19685        4.1486022E-05
  -57.14685       -2.9750963E-04
  -57.09685       -1.0903076E-04
  -57.04685        2.7758753E-04
  -56.99685        1.7034802E-04
  -56.94685       -2.5409769E-04
  -56.89685       -2.4244779E-04
  -56.84685        2.1174281E-04
  -56.79685        3.2904063E-04
  -56.74685       -1.1474056E-04
  -56.69685       -3.8097185E-04
  -56.64685       -1.6375609E-05
  -56.59685        3.7109986E-04
  -56.54685        1.3605121E-04
  -56.49685       -3.2084167E-04
  -56.44685       -2.3648996E-04
  -56.39685        2.3835115E-04
  -56.34685        3.1256734E-04
  -56.29685       -1.2151871E-04
  -56.24685       -3.3888477E-04
  -56.19685       -2.4012006E-06
  -56.14685        3.1258882E-04
  -56.09685        1.0468634E-04
  -56.04685       -2.5360164E-04
  -55.99685       -1.8093899E-04
  -55.94685        1.6945666E-04
  -55.89685        2.2318888E-04
  -55.84685       -6.7302732E-05
  -55.79685       -2.1283656E-04
  -55.74685       -1.9770758E-05
  -55.69685        1.5746336E-04
  -55.64685        5.8303227E-05
  -55.59685       -9.8279153E-05
  -55.54685       -5.4429314E-05
  -55.49685        6.5826192E-05
  -55.44685        3.7912672E-05
  -55.39685       -6.0115657E-05
  -55.34685       -2.7989476E-05
  -55.29685        7.3544150E-05
  -55.24685        3.9607934E-05
  -55.19685       -8.9883273E-05
  -55.14685       -8.1523132E-05
  -55.09685        7.7215132E-05
  -55.04685        1.2915314E-04
  -54.99685       -2.6688775E-05
  -54.94685       -1.4756437E-04
  -54.89685       -3.2326381E-05
  -54.84685        1.4039177E-04
  -54.79685        8.6372303E-05
  -54.74685       -1.2156099E-04
  -54.69685       -1.5039663E-04
  -54.64685        6.6974702E-05
  -54.59685        2.0372112E-04
  -54.54685        3.5690937E-05
  -54.49685       -1.9558506E-04
  -54.44685       -1.3685903E-04
  -54.39685        1.2830622E-04
  -54.34685        1.9274838E-04
  -54.29685       -4.6517303E-05
  -54.24685       -2.1557018E-04
  -54.19685       -4.0509778E-05
  -54.14685        2.1185691E-04
  -54.09685        1.3975300E-04
  -54.04685       -1.5634771E-04
  -53.99685       -2.1800169E-04
  -53.94685        5.2049432E-05
  -53.89685        2.3398649E-04
  -53.84685        5.4596068E-05
  -53.79685       -1.8923932E-04
  -53.74685       -1.2098026E-04
  -53.69685        1.1917338E-04
  -53.64685        1.3531215E-04
  -53.59685       -6.6774235E-05
  -53.54685       -1.2269011E-04
  -53.49685        5.1939311E-05
  -53.44685        1.2998082E-04
  -53.39685       -4.0767947E-05
  -53.34685       -1.6290313E-04
  -53.29685       -9.0423764E-06
  -53.24685        1.6998510E-04
  -53.19685        7.0596107E-05
  -53.14685       -1.3511744E-04
  -53.09685       -9.4080220E-05
  -53.04685        1.1183583E-04
  -52.99685        1.0605188E-04
  -52.94685       -1.1616341E-04
  -52.89685       -1.6003900E-04
  -52.84685        8.3521816E-05
  -52.79685        2.2111287E-04
  -52.74685        1.1187928E-05
  -52.69685       -2.1437545E-04
  -52.64685       -9.5325624E-05
  -52.59685        1.5723366E-04
  -52.54685        1.2263529E-04
  -52.49685       -1.2113168E-04
  -52.44685       -1.4268691E-04
  -52.39685        1.0073087E-04
  -52.34685        1.9000538E-04
  -52.29685       -4.1463329E-05
  -52.24685       -2.2014497E-04
  -52.19685       -5.2560259E-05
  -52.14685        1.9220814E-04
  -52.09685        1.3029233E-04
  -52.04685       -1.2144429E-04
  -51.99685       -1.6256646E-04
  -51.94685        4.3400894E-05
  -51.89685        1.5191680E-04
  -51.84685        1.5144556E-05
  -51.79685       -1.1824098E-04
  -51.74685       -4.5361605E-05
  -51.69685        8.5595508E-05
  -51.64685        6.2328167E-05
  -51.59685       -5.4081160E-05
  -51.54685       -7.3644915E-05
  -51.49685        1.0181955E-05
  -51.44685        5.5999903E-05
  -51.39685        2.2609302E-05
  -51.34685       -8.1699309E-06
  -51.29685       -5.8167780E-06
  -51.24685       -1.7690907E-05
  -51.19685       -3.8964630E-05
  -51.14685       -9.0160092E-06
  -51.09685        5.3701664E-05
  -51.04685        5.0729479E-05
  -50.99685       -3.0225197E-05
  -50.94685       -7.0602000E-05
  -50.89685       -7.0091698E-07
  -50.84685        7.7966695E-05
  -50.79685        3.7607519E-05
  -50.74685       -7.4783798E-05
  -50.69685       -9.1733513E-05
  -50.64685        3.0056421E-05
  -50.59685        1.2892109E-04
  -50.54685        5.5558376E-05
  -50.49685       -1.0329793E-04
  -50.44685       -1.2527686E-04
  -50.39685        3.1450669E-05
  -50.34685        1.4448921E-04
  -50.29685        3.8949667E-05
  -50.24685       -1.3412110E-04
  -50.19685       -1.0137072E-04
  -50.14685        1.0469182E-04
  -50.09685        1.6254862E-04
  -50.04685       -4.1018233E-05
  -49.99685       -1.9833616E-04
  -49.94685       -4.6775458E-05
  -49.89685        1.8933890E-04
  -49.84685        1.2847161E-04
  -49.79685       -1.4537672E-04
  -49.74685       -1.9067583E-04
  -49.69685        7.7207624E-05
  -49.64685        2.2703702E-04
  -49.59685        8.5680240E-06
  -49.54685       -2.2510023E-04
  -49.49685       -9.0884147E-05
  -49.44685        1.8805779E-04
  -49.39685        1.5076174E-04
  -49.34685       -1.3386272E-04
  -49.29685       -1.8830394E-04
  -49.24685        6.9283997E-05
  -49.19685        1.9935615E-04
  -49.14685       -4.6641421E-06
  -49.09685       -1.7928035E-04
  -49.04685       -3.4272118E-05
  -48.99685        1.5396380E-04
  -48.94685        4.8251684E-05
  -48.89685       -1.5038380E-04
  -48.84685       -7.0396876E-05
  -48.79685        1.5378835E-04
  -48.74685        1.1177690E-04
  -48.69685       -1.3992305E-04
  -48.64685       -1.5425423E-04
  -48.59685        1.1219002E-04
  -48.54685        1.9326626E-04
  -48.49685       -7.3922041E-05
  -48.44685       -2.3287836E-04
  -48.39685        1.3127767E-05
  -48.34685        2.5791969E-04
  -48.29685        6.7794674E-05
  -48.24685       -2.5361692E-04
  -48.19685       -1.5457124E-04
  -48.14685        2.1732354E-04
  -48.09685        2.3806111E-04
  -48.04685       -1.4149866E-04
  -47.99685       -2.9573592E-04
  -47.94685        3.3295360E-05
  -47.89685        3.0175238E-04
  -47.84685        7.1905153E-05
  -47.79685       -2.6469480E-04
  -47.74685       -1.5267916E-04
  -47.69685        2.0723804E-04
  -47.64685        2.1499874E-04
  -47.59685       -1.2829406E-04
  -47.54685       -2.5043511E-04
  -47.49685        2.9802392E-05
  -47.44685        2.3545336E-04
  -47.39685        5.1496372E-05
  -47.34685       -1.8282217E-04
  -47.29685       -8.6841203E-05
  -47.24685        1.3820441E-04
  -47.19685        9.9690529E-05
  -47.14685       -1.1448541E-04
  -47.09685       -1.2269574E-04
  -47.04685        8.3478459E-05
  -46.99685        1.4580431E-04
  -46.94685       -3.5351699E-05
  -46.89685       -1.4625204E-04
  -46.84685       -7.6814258E-06
  -46.79685        1.3283119E-04
  -46.74685        3.8088940E-05
  -46.69685       -1.2238987E-04
  -46.64685       -7.3752315E-05
  -46.59685        1.0197039E-04
  -46.54685        1.1388229E-04
  -46.49685       -5.4338481E-05
  -46.44685       -1.3024894E-04
  -46.39685       -2.6860657E-06
  -46.34685        1.1356716E-04
  -46.29685        3.9945477E-05
  -46.24685       -8.8040397E-05
  -46.19685       -5.9153062E-05
  -46.14685        7.1397735E-05
  -46.09685        8.2965220E-05
  -46.04685       -4.8936792E-05
  -45.99685       -1.1295767E-04
  -45.94685        4.9753220E-07
  -45.89685        1.2130396E-04
  -45.84685        6.1490748E-05
  -45.79685       -9.0296227E-05
  -45.74685       -1.0268527E-04
  -45.69685        3.8946881E-05
  -45.64685        1.0937886E-04
  -45.59685        9.6498184E-07
  -45.54685       -1.0246081E-04
  -45.49685       -2.4649858E-05
  -45.44685        1.0545008E-04
  -45.39685        5.7784695E-05
  -45.34685       -1.0589961E-04
  -45.29685       -1.1093848E-04
  -45.24685        7.3083414E-05
  -45.19685        1.5356328E-04
  -45.14685       -1.2564614E-05
  -45.09685       -1.6137920E-04
  -45.04685       -4.2525091E-05
  -44.99685        1.5256637E-04
  -44.94685        9.1165792E-05
  -44.89685       -1.3848529E-04
  -44.84685       -1.5245182E-04
  -44.79685        9.0624417E-05
  -44.74685        2.0180306E-04
  -44.69685       -2.9635687E-06
  -44.64685       -1.9517881E-04
  -44.59685       -7.4994750E-05
  -44.54685        1.4265491E-04
  -44.49685        1.0556623E-04
  -44.44685       -9.1193840E-05
  -44.39685       -1.0180235E-04
  -44.34685        6.5136861E-05
  -44.29685        9.1948226E-05
  -44.24685       -6.1858249E-05
  -44.19685       -9.4781688E-05
  -44.14685        6.8063098E-05
  -44.09685        1.1810729E-04
  -44.04685       -6.7493507E-05
  -43.99685       -1.5998255E-04
  -43.94685        4.5979636E-05
  -43.89685        2.1388714E-04
  -43.84685        1.4906360E-05
  -43.79685       -2.5531120E-04
  -43.74685       -1.2227405E-04
  -43.69685        2.3968464E-04
  -43.64685        2.3770593E-04
  -43.59685       -1.5418454E-04
  -43.54685       -3.0780004E-04
  -43.49685        3.7232065E-05
  -43.44685        3.2378422E-04
  -43.39685        8.1273392E-05
  -43.34685       -2.9618313E-04
  -43.29685       -1.9476943E-04
  -43.24685        2.1512230E-04
  -43.19685        2.7190041E-04
  -43.14685       -9.4037568E-05
  -43.09685       -2.7867817E-04
  -43.04685       -1.2579033E-05
  -42.99685        2.3602627E-04
  -42.94685        7.6120181E-05
  -42.89685       -1.8619686E-04
  -42.84685       -1.1430288E-04
  -42.79685        1.3569648E-04
  -42.74685        1.3561049E-04
  -42.69685       -8.0127735E-05
  -42.64685       -1.2715286E-04
  -42.59685        4.2296553E-05
  -42.54685        9.9844867E-05
  -42.49685       -4.2143150E-05
  -42.44685       -9.1774957E-05
  -42.39685        5.9108668E-05
  -42.34685        1.1975370E-04
  -42.29685       -5.8479916E-05
  -42.24685       -1.6852282E-04
  -42.19685        2.4839102E-05
  -42.14685        2.2088950E-04
  -42.09685        5.3913114E-05
  -42.04685       -2.4847695E-04
  -41.99685       -1.8051849E-04
  -41.94685        1.9983097E-04
  -41.89685        3.0421288E-04
  -41.84685       -5.9658632E-05
  -41.79685       -3.4789581E-04
  -41.74685       -1.1332662E-04
  -41.69685        2.8904158E-04
  -41.64685        2.4748538E-04
  -41.59685       -1.6292233E-04
  -41.54685       -3.1107190E-04
  -41.49685        1.2211244E-05
  -41.44685        2.9760879E-04
  -41.39685        1.2339564E-04
  -41.34685       -2.1826234E-04
  -41.29685       -2.0931890E-04
  -41.24685        1.0510366E-04
  -41.19685        2.3373069E-04
  -41.14685        8.9202185E-06
  -41.09685       -2.0104604E-04
  -41.04685       -9.6022988E-05
  -40.99685        1.2577602E-04
  -40.94685        1.3011874E-04
  -40.89685       -4.3719043E-05
  -40.84685       -1.0930780E-04
  -40.79685       -5.0647509E-06
  -40.74685        6.5229746E-05
  -40.69685        9.7165648E-06
  -40.64685       -3.3117307E-05
  -40.59685        1.3159850E-05
  -40.54685        2.8611457E-05
  -40.49685       -4.3735290E-05
  -40.44685       -5.6417466E-05
  -40.39685        6.2357562E-05
  -40.34685        1.1609205E-04
  -40.29685       -4.0695199E-05
  -40.24685       -1.8473111E-04
  -40.19685       -4.0170584E-05
  -40.14685        2.1548415E-04
  -40.09685        1.6012944E-04
  -40.04685       -1.7437385E-04
  -39.99685       -2.7063052E-04
  -39.94685        6.5980093E-05
  -39.89685        3.3179036E-04
  -39.84685        8.3572413E-05
  -39.79685       -3.2033556E-04
  -39.74685       -2.3993358E-04
  -39.69685        2.2381006E-04
  -39.64685        3.5292783E-04
  -39.59685       -6.0604631E-05
  -39.54685       -3.7554465E-04
  -39.49685       -1.1121357E-04
  -39.44685        3.0351337E-04
  -39.39685        2.3030194E-04
  -39.34685       -1.7855754E-04
  -39.29685       -2.7157186E-04
  -39.24685        5.3428663E-05
  -39.19685        2.4877983E-04
  -39.14685        3.9795948E-05
  -39.09685       -1.8812586E-04
  -39.04685       -8.9082379E-05
  -38.99685        1.1100588E-04
  -38.94685        8.2654384E-05
  -38.89685       -5.3034095E-05
  -38.84685       -2.6671194E-05
  -38.79685        6.3364103E-05
  -38.74685       -1.7748802E-05
  -38.69685       -1.3789810E-04
  -38.64685       -1.7172220E-05
  -38.59685        1.9840419E-04
  -38.54685        1.1682117E-04
  -38.49685       -1.8752599E-04
  -38.44685       -2.1337093E-04
  -38.39685        1.2445179E-04
  -38.34685        2.8081311E-04
  -38.29685       -3.6038073E-05
  -38.24685       -3.2714411E-04
  -38.19685       -8.8140674E-05
  -38.14685        3.2790203E-04
  -38.09685        2.4161350E-04
  -38.04685       -2.3999994E-04
  -37.99685       -3.6260614E-04
  -37.94685        7.1758943E-05
  -37.89685        3.8452377E-04
  -37.84685        1.0368745E-04
  -37.79685       -3.0591333E-04
  -37.74685       -2.1499340E-04
  -37.69685        1.8613992E-04
  -37.64685        2.5256869E-04
  -37.59685       -7.5319309E-05
  -37.54685       -2.4446324E-04
  -37.49685       -1.7180997E-05
  -37.44685        2.0260736E-04
  -37.39685        8.4238542E-05
  -37.34685       -1.3111322E-04
  -37.29685       -1.0264279E-04
  -37.24685        6.1815517E-05
  -37.19685        7.0629780E-05
  -37.14685       -3.8149319E-05
  -37.09685       -3.0352514E-05
  -37.04685        6.5756860E-05
  -36.99685        3.1669304E-05
  -36.94685       -1.0098067E-04
  -36.89685       -7.9867321E-05
  -36.84685        9.8310185E-05
  -36.79685        1.3631754E-04
  -36.74685       -5.5923752E-05
  -36.69685       -1.7049201E-04
  -36.64685       -2.8303116E-06
  -36.59685        1.8241972E-04
  -36.54685        6.9866706E-05
  -36.49685       -1.7196570E-04
  -36.44685       -1.4420594E-04
  -36.39685        1.2668423E-04
  -36.34685        2.0883181E-04
  -36.29685       -4.4073080E-05
  -36.24685       -2.4095830E-04
  -36.19685       -6.3741274E-05
  -36.14685        2.2248714E-04
  -36.09685        1.7451870E-04
  -36.04685       -1.4020427E-04
  -35.99685       -2.4696314E-04
  -35.94685        9.2360106E-06
  -35.89685        2.3957810E-04
  -35.84685        1.1323302E-04
  -35.79685       -1.5849988E-04
  -35.74685       -1.7289876E-04
  -35.69685        5.8704336E-05
  -35.64685        1.7007819E-04
  -35.59685        1.6355916E-05
  -35.54685       -1.3935647E-04
  -35.49685       -6.6010623E-05
  -35.44685        9.6099575E-05
  -35.39685        9.4554023E-05
  -35.34685       -4.1682699E-05
  -35.29685       -8.9168992E-05
  -35.24685        8.8000242E-08
  -35.19685        5.7643127E-05
  -35.14685        4.1161029E-06
  -35.09685       -3.8368067E-05
  -35.04685        1.1627990E-05
  -34.99685        4.9172675E-05
  -34.94685       -1.3261151E-05
  -34.89685       -7.0417278E-05
  -34.84685       -6.1490914E-06
  -34.79685        8.2697086E-05
  -34.74685        3.6154393E-05
  -34.69685       -8.1364728E-05
  -34.64685       -6.8231137E-05
  -34.59685        6.7561698E-05
  -34.54685        9.7483753E-05
  -34.49685       -4.5522018E-05
  -34.44685       -1.2800141E-04
  -34.39685        7.8332005E-06
  -34.34685        1.5693983E-04
  -34.29685        6.2263505E-05
  -34.24685       -1.5141025E-04
  -34.19685       -1.4733532E-04
  -34.14685        8.5723412E-05
  -34.09685        1.9445203E-04
  -34.04685        1.0226770E-05
  -33.99685       -1.8127484E-04
  -33.94685       -8.7680120E-05
  -33.89685        1.3434402E-04
  -33.84685        1.3598733E-04
  -33.79685       -7.4450472E-05
  -33.74685       -1.6126805E-04
  -33.69685        1.6634827E-06
  -33.64685        1.5072204E-04
  -33.59685        6.5888074E-05
  -33.54685       -9.9787569E-05
  -33.49685       -9.3873066E-05
  -33.44685        4.1906733E-05
  -33.39685        7.9755024E-05
  -33.34685       -1.4363658E-05
  -33.29685       -6.0097889E-05
  -33.24685        1.2324937E-05
  -33.19685        6.0146514E-05
  -33.14685       -6.2751838E-06
  -33.09685       -6.8621586E-05
  -33.04685       -1.3480468E-05
  -32.99685        6.8069297E-05
  -32.94685        3.6819962E-05
  -32.89685       -5.6105247E-05
  -32.84685       -5.5670051E-05
  -32.79685        3.6148733E-05
  -32.74685        6.5899316E-05
  -32.69685       -1.3543687E-05
  -32.64685       -6.7419140E-05
  -32.59685       -6.9008793E-06
  -32.54685        6.4754749E-05
  -32.49685        2.7592472E-05
  -32.44685       -5.6116583E-05
  -32.39685       -4.8335340E-05
  -32.34685        3.6298770E-05
  -32.29685        5.9019218E-05
  -32.24685       -1.2426923E-05
  -32.19685       -5.6279725E-05
  -32.14685       -3.6497077E-06
  -32.09685        5.0669987E-05
  -32.04685        1.3673853E-05
  -31.99685       -4.8565409E-05
  -31.94685       -2.6132744E-05
  -31.89685        4.5179539E-05
  -31.84685        4.2654512E-05
  -31.79685       -3.4207103E-05
  -31.74685       -5.8392063E-05
  -31.69685        1.3112626E-05
  -31.64685        6.4929503E-05
  -31.59685        1.3363760E-05
  -31.54685       -5.5504312E-05
  -31.49685       -3.0873700E-05
  -31.44685        3.8678911E-05
  -31.39685        3.2159664E-05
  -31.34685       -3.4519260E-05
  -31.29685       -3.5832054E-05
  -31.24685        4.1529431E-05
  -31.19685        6.3481079E-05
  -31.14685       -2.6083313E-05
  -31.09685       -9.4502480E-05
  -31.04685       -2.5419631E-05
  -30.99685        8.5763742E-05
  -30.94685        7.2951196E-05
  -30.89685       -4.0780225E-05
  -30.84685       -8.1270577E-05
  -30.79685        2.9450314E-06
  -30.74685        6.9371425E-05
  -30.69685        1.6220896E-05
  -30.64685       -6.2118379E-05
  -30.59685       -3.7804639E-05
  -30.54685        4.7291320E-05
  -30.49685        5.9161310E-05
  -30.44685       -1.4682682E-05
  -30.39685       -5.8635091E-05
  -30.34685       -1.6206168E-05
  -30.29685        3.7496688E-05
  -30.24685        2.8082537E-05
  -30.19685       -1.4132725E-05
  -30.14685       -2.4240975E-05
  -30.09685       -1.7192816E-06
  -30.04685        1.2818858E-05
  -29.99685        8.5847350E-06
  -29.94685        1.2529720E-06
  -29.89685       -6.1087362E-06
  -29.84685       -1.3686829E-05
  -29.79685       -5.4050556E-06
  -29.74685        1.9579695E-05
  -29.69685        2.4296069E-05
  -29.64685       -1.1721050E-05
  -29.59685       -4.2279495E-05
  -29.54685       -1.3841868E-05
  -29.49685        4.2863110E-05
  -29.44685        4.5441007E-05
  -29.39685       -1.6477967E-05
  -29.34685       -5.8077894E-05
  -29.29685       -2.1280144E-05
  -29.24685        4.0644860E-05
  -29.19685        4.2315030E-05
  -29.14685       -1.2159851E-05
  -29.09685       -4.1820924E-05
  -29.04685       -7.4487011E-06
  -28.99685        3.7053640E-05
  -28.94685        2.4680519E-05
  -28.89685       -3.0052977E-05
  -28.84685       -4.8668848E-05
  -28.79685        4.1862754E-06
  -28.74685        6.3166073E-05
  -28.69685        4.0674560E-05
  -28.64685       -4.6335452E-05
  -28.59685       -7.9485158E-05
  -28.54685        8.5239560E-07
  -28.49685        9.0802176E-05
  -28.44685        5.3837986E-05
  -28.39685       -7.0313981E-05
  -28.34685       -9.9954654E-05
  -28.29685        2.1914659E-05
  -28.24685        1.2150796E-04
  -28.19685        4.2595279E-05
  -28.14685       -1.0624233E-04
  -28.09685       -1.0096088E-04
  -28.04685        5.6238281E-05